MODEL 1
REMARK VINA RESULT:    -7.420      0.000      0.000
REMARK INTER + INTRA:         -10.171
REMARK INTER:                  -9.589
REMARK INTRA:                  -0.582
REMARK UNBOUND:                -0.582
REMARK SMILES Cc1ccc(C(C)C)cc1OCc1cc(-c2ccccc2)no1
REMARK SMILES IDX 11 1 10 2 2 3 3 4 4 5 9 6 5 7 1 8 6 9 7 10 8 11 12 12 13 13
REMARK SMILES IDX 14 14 23 15 15 16 22 17 16 18 17 19 21 20 18 21 20 22 19 23
REMARK H PARENT
ROOT
ATOM      1  O   UNL     1     -20.248  18.387 -29.154  1.00  0.00    -0.485 OA
ENDROOT
BRANCH   1   2
ATOM      2  C   UNL     1     -20.942  17.299 -29.619  1.00  0.00     0.123 A 
ATOM      3  C   UNL     1     -21.888  17.566 -30.623  1.00  0.00    -0.009 A 
ATOM      4  C   UNL     1     -22.629  16.507 -31.166  1.00  0.00     0.007 A 
ATOM      5  C   UNL     1     -22.426  15.198 -30.726  1.00  0.00     0.004 A 
ATOM      6  C   UNL     1     -20.737  15.982 -29.194  1.00  0.00     0.050 A 
ATOM      7  C   UNL     1     -21.476  14.917 -29.739  1.00  0.00    -0.042 A 
ATOM      8  C   UNL     1     -22.118  18.967 -31.116  1.00  0.00     0.048 C 
BRANCH   7   9
ATOM      9  C   UNL     1     -21.256  13.483 -29.288  1.00  0.00     0.013 C 
ATOM     10  C   UNL     1     -20.253  13.405 -28.133  1.00  0.00     0.012 C 
ATOM     11  C   UNL     1     -22.574  12.801 -28.914  1.00  0.00     0.012 C 
ENDBRANCH   7   9
ENDBRANCH   1   2
BRANCH   1  12
ATOM     12  C   UNL     1     -19.110  18.158 -28.317  1.00  0.00     0.307 C 
BRANCH  12  13
ATOM     13  C   UNL     1     -19.133  19.115 -27.190  1.00  0.00     0.174 A 
ATOM     14  C   UNL     1     -19.204  20.482 -27.074  1.00  0.00     0.081 A 
ATOM     15  O   UNL     1     -19.066  18.575 -25.947  1.00  0.00    -0.357 OA
ATOM     16  C   UNL     1     -19.164  20.742 -25.678  1.00  0.00     0.114 A 
ATOM     17  N   UNL     1     -19.086  19.580 -25.004  1.00  0.00    -0.079 NA
BRANCH  16  18
ATOM     18  C   UNL     1     -19.199  22.035 -24.988  1.00  0.00     0.004 A 
ATOM     19  C   UNL     1     -20.257  22.353 -24.120  1.00  0.00     0.010 A 
ATOM     20  C   UNL     1     -18.183  22.984 -25.172  1.00  0.00     0.010 A 
ATOM     21  C   UNL     1     -20.298  23.584 -23.459  1.00  0.00     0.001 A 
ATOM     22  C   UNL     1     -18.224  24.216 -24.511  1.00  0.00     0.001 A 
ATOM     23  C   UNL     1     -19.282  24.516 -23.656  1.00  0.00     0.000 A 
ENDBRANCH  16  18
ENDBRANCH  12  13
ENDBRANCH   1  12
TORSDOF 5
ENDMDL
MODEL 2
REMARK VINA RESULT:    -7.389      2.559      3.864
REMARK INTER + INTRA:         -10.131
REMARK INTER:                  -9.203
REMARK INTRA:                  -0.928
REMARK UNBOUND:                -0.582
REMARK SMILES Cc1ccc(C(C)C)cc1OCc1cc(-c2ccccc2)no1
REMARK SMILES IDX 11 1 10 2 2 3 3 4 4 5 9 6 5 7 1 8 6 9 7 10 8 11 12 12 13 13
REMARK SMILES IDX 14 14 23 15 15 16 22 17 16 18 17 19 21 20 18 21 20 22 19 23
REMARK H PARENT
ROOT
ATOM      1  O   UNL     1     -23.135  16.658 -25.375  1.00  0.00    -0.485 OA
ENDROOT
BRANCH   1   2
ATOM      2  C   UNL     1     -22.335  15.739 -26.004  1.00  0.00     0.123 A 
ATOM      3  C   UNL     1     -21.305  15.192 -25.221  1.00  0.00    -0.009 A 
ATOM      4  C   UNL     1     -20.453  14.231 -25.782  1.00  0.00     0.007 A 
ATOM      5  C   UNL     1     -20.627  13.811 -27.101  1.00  0.00     0.004 A 
ATOM      6  C   UNL     1     -22.510  15.301 -27.322  1.00  0.00     0.050 A 
ATOM      7  C   UNL     1     -21.659  14.336 -27.887  1.00  0.00    -0.042 A 
ATOM      8  C   UNL     1     -21.104  15.625 -23.795  1.00  0.00     0.048 C 
BRANCH   7   9
ATOM      9  C   UNL     1     -21.843  13.850 -29.314  1.00  0.00     0.013 C 
ATOM     10  C   UNL     1     -22.545  12.489 -29.358  1.00  0.00     0.012 C 
ATOM     11  C   UNL     1     -22.589  14.877 -30.168  1.00  0.00     0.012 C 
ENDBRANCH   7   9
ENDBRANCH   1   2
BRANCH   1  12
ATOM     12  C   UNL     1     -23.307  17.940 -25.987  1.00  0.00     0.307 C 
BRANCH  12  13
ATOM     13  C   UNL     1     -22.111  18.770 -25.725  1.00  0.00     0.174 A 
ATOM     14  C   UNL     1     -21.169  19.394 -26.506  1.00  0.00     0.081 A 
ATOM     15  O   UNL     1     -21.820  19.002 -24.420  1.00  0.00    -0.357 OA
ATOM     16  C   UNL     1     -20.276  20.013 -25.591  1.00  0.00     0.114 A 
ATOM     17  N   UNL     1     -20.682  19.774 -24.331  1.00  0.00    -0.079 NA
BRANCH  16  18
ATOM     18  C   UNL     1     -19.077  20.807 -25.880  1.00  0.00     0.004 A 
ATOM     19  C   UNL     1     -18.881  22.054 -25.263  1.00  0.00     0.010 A 
ATOM     20  C   UNL     1     -18.098  20.345 -26.772  1.00  0.00     0.010 A 
ATOM     21  C   UNL     1     -17.741  22.817 -25.533  1.00  0.00     0.001 A 
ATOM     22  C   UNL     1     -16.958  21.109 -27.043  1.00  0.00     0.001 A 
ATOM     23  C   UNL     1     -16.781  22.345 -26.424  1.00  0.00     0.000 A 
ENDBRANCH  16  18
ENDBRANCH  12  13
ENDBRANCH   1  12
TORSDOF 5
ENDMDL
MODEL 3
REMARK VINA RESULT:    -7.351      1.559      3.832
REMARK INTER + INTRA:         -10.082
REMARK INTER:                  -9.417
REMARK INTRA:                  -0.665
REMARK UNBOUND:                -0.582
REMARK SMILES Cc1ccc(C(C)C)cc1OCc1cc(-c2ccccc2)no1
REMARK SMILES IDX 11 1 10 2 2 3 3 4 4 5 9 6 5 7 1 8 6 9 7 10 8 11 12 12 13 13
REMARK SMILES IDX 14 14 23 15 15 16 22 17 16 18 17 19 21 20 18 21 20 22 19 23
REMARK H PARENT
ROOT
ATOM      1  O   UNL     1     -21.361  16.346 -28.699  1.00  0.00    -0.485 OA
ENDROOT
BRANCH   1   2
ATOM      2  C   UNL     1     -21.761  16.852 -29.909  1.00  0.00     0.123 A 
ATOM      3  C   UNL     1     -22.481  15.968 -30.730  1.00  0.00    -0.009 A 
ATOM      4  C   UNL     1     -22.943  16.412 -31.977  1.00  0.00     0.007 A 
ATOM      5  C   UNL     1     -22.703  17.720 -32.399  1.00  0.00     0.004 A 
ATOM      6  C   UNL     1     -21.537  18.166 -30.336  1.00  0.00     0.050 A 
ATOM      7  C   UNL     1     -22.002  18.615 -31.584  1.00  0.00    -0.042 A 
ATOM      8  C   UNL     1     -22.757  14.557 -30.291  1.00  0.00     0.048 C 
BRANCH   7   9
ATOM      9  C   UNL     1     -21.768  20.040 -32.055  1.00  0.00     0.013 C 
ATOM     10  C   UNL     1     -21.892  21.039 -30.901  1.00  0.00     0.012 C 
ATOM     11  C   UNL     1     -20.420  20.187 -32.763  1.00  0.00     0.012 C 
ENDBRANCH   7   9
ENDBRANCH   1   2
BRANCH   1  12
ATOM     12  C   UNL     1     -19.959  16.284 -28.419  1.00  0.00     0.307 C 
BRANCH  12  13
ATOM     13  C   UNL     1     -19.576  17.444 -27.585  1.00  0.00     0.174 A 
ATOM     14  C   UNL     1     -19.012  18.673 -27.826  1.00  0.00     0.081 A 
ATOM     15  O   UNL     1     -19.808  17.322 -26.253  1.00  0.00    -0.357 OA
ATOM     16  C   UNL     1     -18.904  19.290 -26.552  1.00  0.00     0.114 A 
ATOM     17  N   UNL     1     -19.393  18.467 -25.607  1.00  0.00    -0.079 NA
BRANCH  16  18
ATOM     18  C   UNL     1     -18.362  20.612 -26.220  1.00  0.00     0.004 A 
ATOM     19  C   UNL     1     -17.122  21.026 -26.737  1.00  0.00     0.010 A 
ATOM     20  C   UNL     1     -19.062  21.495 -25.385  1.00  0.00     0.010 A 
ATOM     21  C   UNL     1     -16.598  22.283 -26.424  1.00  0.00     0.001 A 
ATOM     22  C   UNL     1     -18.537  22.753 -25.072  1.00  0.00     0.001 A 
ATOM     23  C   UNL     1     -17.305  23.146 -25.591  1.00  0.00     0.000 A 
ENDBRANCH  16  18
ENDBRANCH  12  13
ENDBRANCH   1  12
TORSDOF 5
ENDMDL
MODEL 4
REMARK VINA RESULT:    -7.292      4.587      6.106
REMARK INTER + INTRA:         -10.005
REMARK INTER:                  -9.193
REMARK INTRA:                  -0.812
REMARK UNBOUND:                -0.582
REMARK SMILES Cc1ccc(C(C)C)cc1OCc1cc(-c2ccccc2)no1
REMARK SMILES IDX 11 1 10 2 2 3 3 4 4 5 9 6 5 7 1 8 6 9 7 10 8 11 12 12 13 13
REMARK SMILES IDX 14 14 23 15 15 16 22 17 16 18 17 19 21 20 18 21 20 22 19 23
REMARK H PARENT
ROOT
ATOM      1  O   UNL     1     -21.490  14.645 -29.820  1.00  0.00    -0.485 OA
ENDROOT
BRANCH   1   2
ATOM      2  C   UNL     1     -21.864  15.900 -30.228  1.00  0.00     0.123 A 
ATOM      3  C   UNL     1     -21.062  16.955 -29.761  1.00  0.00    -0.009 A 
ATOM      4  C   UNL     1     -21.364  18.269 -30.146  1.00  0.00     0.007 A 
ATOM      5  C   UNL     1     -22.441  18.532 -30.992  1.00  0.00     0.004 A 
ATOM      6  C   UNL     1     -22.934  16.173 -31.088  1.00  0.00     0.050 A 
ATOM      7  C   UNL     1     -23.237  17.489 -31.478  1.00  0.00    -0.042 A 
ATOM      8  C   UNL     1     -19.892  16.693 -28.854  1.00  0.00     0.048 C 
BRANCH   7   9
ATOM      9  C   UNL     1     -24.394  17.795 -32.414  1.00  0.00     0.013 C 
ATOM     10  C   UNL     1     -25.534  16.785 -32.246  1.00  0.00     0.012 C 
ATOM     11  C   UNL     1     -24.902  19.227 -32.235  1.00  0.00     0.012 C 
ENDBRANCH   7   9
ENDBRANCH   1   2
BRANCH   1  12
ATOM     12  C   UNL     1     -22.352  13.939 -28.922  1.00  0.00     0.307 C 
BRANCH  12  13
ATOM     13  C   UNL     1     -21.886  14.150 -27.534  1.00  0.00     0.174 A 
ATOM     14  C   UNL     1     -22.410  14.741 -26.410  1.00  0.00     0.081 A 
ATOM     15  O   UNL     1     -20.651  13.670 -27.240  1.00  0.00    -0.357 OA
ATOM     16  C   UNL     1     -21.408  14.601 -25.413  1.00  0.00     0.114 A 
ATOM     17  N   UNL     1     -20.350  13.947 -25.924  1.00  0.00    -0.079 NA
BRANCH  16  18
ATOM     18  C   UNL     1     -21.433  15.063 -24.021  1.00  0.00     0.004 A 
ATOM     19  C   UNL     1     -22.082  16.261 -23.677  1.00  0.00     0.010 A 
ATOM     20  C   UNL     1     -20.817  14.324 -23.000  1.00  0.00     0.010 A 
ATOM     21  C   UNL     1     -22.109  16.708 -22.353  1.00  0.00     0.001 A 
ATOM     22  C   UNL     1     -20.845  14.771 -21.675  1.00  0.00     0.001 A 
ATOM     23  C   UNL     1     -21.490  15.963 -21.353  1.00  0.00     0.000 A 
ENDBRANCH  16  18
ENDBRANCH  12  13
ENDBRANCH   1  12
TORSDOF 5
ENDMDL
MODEL 5
REMARK VINA RESULT:    -7.251      3.779      5.629
REMARK INTER + INTRA:          -9.953
REMARK INTER:                  -9.026
REMARK INTRA:                  -0.926
REMARK UNBOUND:                -0.582
REMARK SMILES Cc1ccc(C(C)C)cc1OCc1cc(-c2ccccc2)no1
REMARK SMILES IDX 11 1 10 2 2 3 3 4 4 5 9 6 5 7 1 8 6 9 7 10 8 11 12 12 13 13
REMARK SMILES IDX 14 14 23 15 15 16 22 17 16 18 17 19 21 20 18 21 20 22 19 23
REMARK H PARENT
ROOT
ATOM      1  O   UNL     1     -19.532  16.540 -28.791  1.00  0.00    -0.485 OA
ENDROOT
BRANCH   1   2
ATOM      2  C   UNL     1     -20.656  16.036 -29.395  1.00  0.00     0.123 A 
ATOM      3  C   UNL     1     -20.849  14.651 -29.262  1.00  0.00    -0.009 A 
ATOM      4  C   UNL     1     -21.983  14.058 -29.834  1.00  0.00     0.007 A 
ATOM      5  C   UNL     1     -22.920  14.832 -30.520  1.00  0.00     0.004 A 
ATOM      6  C   UNL     1     -21.608  16.805 -30.074  1.00  0.00     0.050 A 
ATOM      7  C   UNL     1     -22.748  16.214 -30.646  1.00  0.00    -0.042 A 
ATOM      8  C   UNL     1     -19.856  13.800 -28.520  1.00  0.00     0.048 C 
BRANCH   7   9
ATOM      9  C   UNL     1     -23.790  17.041 -31.380  1.00  0.00     0.013 C 
ATOM     10  C   UNL     1     -23.767  18.504 -30.927  1.00  0.00     0.012 C 
ATOM     11  C   UNL     1     -23.625  16.937 -32.898  1.00  0.00     0.012 C 
ENDBRANCH   7   9
ENDBRANCH   1   2
BRANCH   1  12
ATOM     12  C   UNL     1     -19.673  17.681 -27.939  1.00  0.00     0.307 C 
BRANCH  12  13
ATOM     13  C   UNL     1     -20.351  17.275 -26.689  1.00  0.00     0.174 A 
ATOM     14  C   UNL     1     -20.096  16.364 -25.694  1.00  0.00     0.081 A 
ATOM     15  O   UNL     1     -21.511  17.920 -26.404  1.00  0.00    -0.357 OA
ATOM     16  C   UNL     1     -21.183  16.485 -24.788  1.00  0.00     0.114 A 
ATOM     17  N   UNL     1     -22.031  17.433 -25.224  1.00  0.00    -0.079 NA
BRANCH  16  18
ATOM     18  C   UNL     1     -21.427  15.740 -23.549  1.00  0.00     0.004 A 
ATOM     19  C   UNL     1     -22.250  16.275 -22.543  1.00  0.00     0.010 A 
ATOM     20  C   UNL     1     -20.851  14.479 -23.334  1.00  0.00     0.010 A 
ATOM     21  C   UNL     1     -22.486  15.572 -21.359  1.00  0.00     0.001 A 
ATOM     22  C   UNL     1     -21.087  13.775 -22.149  1.00  0.00     0.001 A 
ATOM     23  C   UNL     1     -21.904  14.323 -21.162  1.00  0.00     0.000 A 
ENDBRANCH  16  18
ENDBRANCH  12  13
ENDBRANCH   1  12
TORSDOF 5
ENDMDL
MODEL 6
REMARK VINA RESULT:    -7.190      1.998      8.575
REMARK INTER + INTRA:          -9.874
REMARK INTER:                  -9.251
REMARK INTRA:                  -0.623
REMARK UNBOUND:                -0.582
REMARK SMILES Cc1ccc(C(C)C)cc1OCc1cc(-c2ccccc2)no1
REMARK SMILES IDX 11 1 10 2 2 3 3 4 4 5 9 6 5 7 1 8 6 9 7 10 8 11 12 12 13 13
REMARK SMILES IDX 14 14 23 15 15 16 22 17 16 18 17 19 21 20 18 21 20 22 19 23
REMARK H PARENT
ROOT
ATOM      1  O   UNL     1     -17.956  20.500 -26.027  1.00  0.00    -0.485 OA
ENDROOT
BRANCH   1   2
ATOM      2  C   UNL     1     -18.358  21.641 -25.381  1.00  0.00     0.123 A 
ATOM      3  C   UNL     1     -17.467  22.725 -25.452  1.00  0.00    -0.009 A 
ATOM      4  C   UNL     1     -17.809  23.936 -24.833  1.00  0.00     0.007 A 
ATOM      5  C   UNL     1     -19.025  24.072 -24.162  1.00  0.00     0.004 A 
ATOM      6  C   UNL     1     -19.580  21.792 -24.717  1.00  0.00     0.050 A 
ATOM      7  C   UNL     1     -19.928  23.005 -24.099  1.00  0.00    -0.042 A 
ATOM      8  C   UNL     1     -16.156  22.602 -26.176  1.00  0.00     0.048 C 
BRANCH   7   9
ATOM      9  C   UNL     1     -21.254  23.181 -23.380  1.00  0.00     0.013 C 
ATOM     10  C   UNL     1     -21.472  22.088 -22.329  1.00  0.00     0.012 C 
ATOM     11  C   UNL     1     -21.378  24.572 -22.755  1.00  0.00     0.012 C 
ENDBRANCH   7   9
ENDBRANCH   1   2
BRANCH   1  12
ATOM     12  C   UNL     1     -18.586  20.165 -27.268  1.00  0.00     0.307 C 
BRANCH  12  13
ATOM     13  C   UNL     1     -19.180  18.814 -27.164  1.00  0.00     0.174 A 
ATOM     14  C   UNL     1     -19.653  17.887 -28.060  1.00  0.00     0.081 A 
ATOM     15  O   UNL     1     -19.322  18.320 -25.907  1.00  0.00    -0.357 OA
ATOM     16  C   UNL     1     -20.104  16.798 -27.267  1.00  0.00     0.114 A 
ATOM     17  N   UNL     1     -19.895  17.068 -25.966  1.00  0.00    -0.079 NA
BRANCH  16  18
ATOM     18  C   UNL     1     -20.714  15.538 -27.707  1.00  0.00     0.004 A 
ATOM     19  C   UNL     1     -22.007  15.185 -27.285  1.00  0.00     0.010 A 
ATOM     20  C   UNL     1     -20.028  14.658 -28.557  1.00  0.00     0.010 A 
ATOM     21  C   UNL     1     -22.594  13.986 -27.699  1.00  0.00     0.001 A 
ATOM     22  C   UNL     1     -20.616  13.458 -28.971  1.00  0.00     0.001 A 
ATOM     23  C   UNL     1     -21.897  13.122 -28.541  1.00  0.00     0.000 A 
ENDBRANCH  16  18
ENDBRANCH  12  13
ENDBRANCH   1  12
TORSDOF 5
ENDMDL
MODEL 7
REMARK VINA RESULT:    -7.186      3.761      4.857
REMARK INTER + INTRA:          -9.868
REMARK INTER:                  -8.936
REMARK INTRA:                  -0.932
REMARK UNBOUND:                -0.582
REMARK SMILES Cc1ccc(C(C)C)cc1OCc1cc(-c2ccccc2)no1
REMARK SMILES IDX 11 1 10 2 2 3 3 4 4 5 9 6 5 7 1 8 6 9 7 10 8 11 12 12 13 13
REMARK SMILES IDX 14 14 23 15 15 16 22 17 16 18 17 19 21 20 18 21 20 22 19 23
REMARK H PARENT
ROOT
ATOM      1  O   UNL     1     -23.079  17.197 -24.844  1.00  0.00    -0.485 OA
ENDROOT
BRANCH   1   2
ATOM      2  C   UNL     1     -22.173  16.172 -24.747  1.00  0.00     0.123 A 
ATOM      3  C   UNL     1     -21.535  15.808 -25.944  1.00  0.00    -0.009 A 
ATOM      4  C   UNL     1     -20.581  14.781 -25.929  1.00  0.00     0.007 A 
ATOM      5  C   UNL     1     -20.256  14.130 -24.738  1.00  0.00     0.004 A 
ATOM      6  C   UNL     1     -21.831  15.522 -23.555  1.00  0.00     0.050 A 
ATOM      7  C   UNL     1     -20.873  14.494 -23.536  1.00  0.00    -0.042 A 
ATOM      8  C   UNL     1     -21.864  16.501 -27.237  1.00  0.00     0.048 C 
BRANCH   7   9
ATOM      9  C   UNL     1     -20.491  13.785 -22.248  1.00  0.00     0.013 C 
ATOM     10  C   UNL     1     -19.032  14.057 -21.870  1.00  0.00     0.012 C 
ATOM     11  C   UNL     1     -21.431  14.157 -21.099  1.00  0.00     0.012 C 
ENDBRANCH   7   9
ENDBRANCH   1   2
BRANCH   1  12
ATOM     12  C   UNL     1     -22.869  18.366 -24.047  1.00  0.00     0.307 C 
BRANCH  12  13
ATOM     13  C   UNL     1     -21.863  19.229 -24.703  1.00  0.00     0.174 A 
ATOM     14  C   UNL     1     -20.597  19.660 -24.390  1.00  0.00     0.081 A 
ATOM     15  O   UNL     1     -22.220  19.755 -25.902  1.00  0.00    -0.357 OA
ATOM     16  C   UNL     1     -20.209  20.494 -25.472  1.00  0.00     0.114 A 
ATOM     17  N   UNL     1     -21.196  20.541 -26.385  1.00  0.00    -0.079 NA
BRANCH  16  18
ATOM     18  C   UNL     1     -18.952  21.227 -25.655  1.00  0.00     0.004 A 
ATOM     19  C   UNL     1     -17.944  20.721 -26.493  1.00  0.00     0.010 A 
ATOM     20  C   UNL     1     -18.723  22.449 -25.003  1.00  0.00     0.010 A 
ATOM     21  C   UNL     1     -16.743  21.414 -26.671  1.00  0.00     0.001 A 
ATOM     22  C   UNL     1     -17.521  23.141 -25.182  1.00  0.00     0.001 A 
ATOM     23  C   UNL     1     -16.532  22.623 -26.015  1.00  0.00     0.000 A 
ENDBRANCH  16  18
ENDBRANCH  12  13
ENDBRANCH   1  12
TORSDOF 5
ENDMDL
MODEL 8
REMARK VINA RESULT:    -7.161      0.867      2.951
REMARK INTER + INTRA:          -9.836
REMARK INTER:                  -9.207
REMARK INTRA:                  -0.629
REMARK UNBOUND:                -0.582
REMARK SMILES Cc1ccc(C(C)C)cc1OCc1cc(-c2ccccc2)no1
REMARK SMILES IDX 11 1 10 2 2 3 3 4 4 5 9 6 5 7 1 8 6 9 7 10 8 11 12 12 13 13
REMARK SMILES IDX 14 14 23 15 15 16 22 17 16 18 17 19 21 20 18 21 20 22 19 23
REMARK H PARENT
ROOT
ATOM      1  O   UNL     1     -19.802  16.624 -28.215  1.00  0.00    -0.485 OA
ENDROOT
BRANCH   1   2
ATOM      2  C   UNL     1     -20.803  16.153 -29.025  1.00  0.00     0.123 A 
ATOM      3  C   UNL     1     -20.945  14.756 -29.068  1.00  0.00    -0.009 A 
ATOM      4  C   UNL     1     -21.956  14.192 -29.858  1.00  0.00     0.007 A 
ATOM      5  C   UNL     1     -22.824  15.005 -30.587  1.00  0.00     0.004 A 
ATOM      6  C   UNL     1     -21.687  16.960 -29.750  1.00  0.00     0.050 A 
ATOM      7  C   UNL     1     -22.705  16.399 -30.540  1.00  0.00    -0.042 A 
ATOM      8  C   UNL     1     -20.024  13.861 -28.285  1.00  0.00     0.048 C 
BRANCH   7   9
ATOM      9  C   UNL     1     -23.673  17.266 -31.326  1.00  0.00     0.013 C 
ATOM     10  C   UNL     1     -23.346  18.754 -31.170  1.00  0.00     0.012 C 
ATOM     11  C   UNL     1     -23.716  16.869 -32.803  1.00  0.00     0.012 C 
ENDBRANCH   7   9
ENDBRANCH   1   2
BRANCH   1  12
ATOM     12  C   UNL     1     -19.117  17.817 -28.607  1.00  0.00     0.307 C 
BRANCH  12  13
ATOM     13  C   UNL     1     -19.118  18.773 -27.479  1.00  0.00     0.174 A 
ATOM     14  C   UNL     1     -19.112  20.142 -27.362  1.00  0.00     0.081 A 
ATOM     15  O   UNL     1     -19.120  18.229 -26.236  1.00  0.00    -0.357 OA
ATOM     16  C   UNL     1     -19.099  20.397 -25.965  1.00  0.00     0.114 A 
ATOM     17  N   UNL     1     -19.110  19.233 -25.292  1.00  0.00    -0.079 NA
BRANCH  16  18
ATOM     18  C   UNL     1     -19.079  21.690 -25.273  1.00  0.00     0.004 A 
ATOM     19  C   UNL     1     -18.049  22.615 -25.516  1.00  0.00     0.010 A 
ATOM     20  C   UNL     1     -20.082  22.039 -24.356  1.00  0.00     0.010 A 
ATOM     21  C   UNL     1     -18.022  23.849 -24.860  1.00  0.00     0.001 A 
ATOM     22  C   UNL     1     -20.054  23.273 -23.699  1.00  0.00     0.001 A 
ATOM     23  C   UNL     1     -19.024  24.177 -23.950  1.00  0.00     0.000 A 
ENDBRANCH  16  18
ENDBRANCH  12  13
ENDBRANCH   1  12
TORSDOF 5
ENDMDL
