MODEL 1
REMARK VINA RESULT:    -5.408      0.000      0.000
REMARK INTER + INTRA:          -6.898
REMARK INTER:                  -6.357
REMARK INTRA:                  -0.541
REMARK UNBOUND:                -0.541
REMARK SMILES C#CCOc1cc(C(C)C)ccc1C
REMARK SMILES IDX 5 1 6 2 7 3 11 4 12 5 13 6 14 7 4 8 3 9 2 10 1 11 8 12 9 13
REMARK SMILES IDX 10 14
REMARK H PARENT
ROOT
ATOM      1  C   UNL     1     -20.837  15.055 -25.032  1.00  0.00     0.123 A 
ATOM      2  C   UNL     1     -20.686  14.208 -26.137  1.00  0.00     0.050 A 
ATOM      3  C   UNL     1     -21.640  14.183 -27.170  1.00  0.00    -0.042 A 
ATOM      4  C   UNL     1     -22.754  15.026 -27.075  1.00  0.00     0.004 A 
ATOM      5  C   UNL     1     -22.912  15.872 -25.978  1.00  0.00     0.007 A 
ATOM      6  C   UNL     1     -21.960  15.896 -24.950  1.00  0.00    -0.009 A 
ATOM      7  C   UNL     1     -22.150  16.817 -23.777  1.00  0.00     0.048 C 
ENDROOT
BRANCH   1   8
ATOM      8  O   UNL     1     -19.958  15.144 -23.982  1.00  0.00    -0.481 OA
BRANCH   8   9
ATOM      9  C   UNL     1     -19.775  13.986 -23.172  1.00  0.00     0.318 C 
ATOM     10  C   UNL     1     -20.834  13.946 -22.154  1.00  0.00    -0.065 C 
ATOM     11  C   UNL     1     -21.701  13.912 -21.321  1.00  0.00     0.007 C 
ENDBRANCH   8   9
ENDBRANCH   1   8
BRANCH   3  12
ATOM     12  C   UNL     1     -21.447  13.252 -28.355  1.00  0.00     0.013 C 
ATOM     13  C   UNL     1     -20.109  13.504 -29.056  1.00  0.00     0.012 C 
ATOM     14  C   UNL     1     -22.609  13.352 -29.345  1.00  0.00     0.012 C 
ENDBRANCH   3  12
TORSDOF 3
ENDMDL
MODEL 2
REMARK VINA RESULT:    -5.395      1.397      4.889
REMARK INTER + INTRA:          -6.882
REMARK INTER:                  -6.241
REMARK INTRA:                  -0.641
REMARK UNBOUND:                -0.541
REMARK SMILES C#CCOc1cc(C(C)C)ccc1C
REMARK SMILES IDX 5 1 6 2 7 3 11 4 12 5 13 6 14 7 4 8 3 9 2 10 1 11 8 12 9 13
REMARK SMILES IDX 10 14
REMARK H PARENT
ROOT
ATOM      1  C   UNL     1     -20.707  15.060 -26.715  1.00  0.00     0.123 A 
ATOM      2  C   UNL     1     -20.273  14.370 -25.576  1.00  0.00     0.050 A 
ATOM      3  C   UNL     1     -20.891  14.565 -24.328  1.00  0.00    -0.042 A 
ATOM      4  C   UNL     1     -21.957  15.469 -24.241  1.00  0.00     0.004 A 
ATOM      5  C   UNL     1     -22.395  16.160 -25.370  1.00  0.00     0.007 A 
ATOM      6  C   UNL     1     -21.777  15.964 -26.613  1.00  0.00    -0.009 A 
ATOM      7  C   UNL     1     -22.267  16.719 -27.817  1.00  0.00     0.048 C 
ENDROOT
BRANCH   1   8
ATOM      8  O   UNL     1     -20.164  14.931 -27.968  1.00  0.00    -0.481 OA
BRANCH   8   9
ATOM      9  C   UNL     1     -20.072  13.620 -28.519  1.00  0.00     0.318 C 
ATOM     10  C   UNL     1     -21.421  13.160 -28.880  1.00  0.00    -0.065 C 
ATOM     11  C   UNL     1     -22.524  12.784 -29.175  1.00  0.00     0.007 C 
ENDBRANCH   8   9
ENDBRANCH   1   8
BRANCH   3  12
ATOM     12  C   UNL     1     -20.396  13.801 -23.112  1.00  0.00     0.013 C 
ATOM     13  C   UNL     1     -21.331  13.984 -21.914  1.00  0.00     0.012 C 
ATOM     14  C   UNL     1     -18.961  14.190 -22.748  1.00  0.00     0.012 C 
ENDBRANCH   3  12
TORSDOF 3
ENDMDL
MODEL 3
REMARK VINA RESULT:    -5.092      2.929      4.612
REMARK INTER + INTRA:          -6.527
REMARK INTER:                  -6.211
REMARK INTRA:                  -0.316
REMARK UNBOUND:                -0.541
REMARK SMILES C#CCOc1cc(C(C)C)ccc1C
REMARK SMILES IDX 5 1 6 2 7 3 11 4 12 5 13 6 14 7 4 8 3 9 2 10 1 11 8 12 9 13
REMARK SMILES IDX 10 14
REMARK H PARENT
ROOT
ATOM      1  C   UNL     1     -21.104  14.269 -28.792  1.00  0.00     0.123 A 
ATOM      2  C   UNL     1     -20.682  15.597 -28.926  1.00  0.00     0.050 A 
ATOM      3  C   UNL     1     -21.327  16.480 -29.811  1.00  0.00    -0.042 A 
ATOM      4  C   UNL     1     -22.408  16.005 -30.563  1.00  0.00     0.004 A 
ATOM      5  C   UNL     1     -22.835  14.683 -30.436  1.00  0.00     0.007 A 
ATOM      6  C   UNL     1     -22.191  13.806 -29.553  1.00  0.00    -0.009 A 
ATOM      7  C   UNL     1     -22.669  12.386 -29.431  1.00  0.00     0.048 C 
ENDROOT
BRANCH   1   8
ATOM      8  O   UNL     1     -20.535  13.342 -27.955  1.00  0.00    -0.481 OA
BRANCH   8   9
ATOM      9  C   UNL     1     -20.043  13.798 -26.698  1.00  0.00     0.318 C 
ATOM     10  C   UNL     1     -21.128  14.489 -25.985  1.00  0.00    -0.065 C 
ATOM     11  C   UNL     1     -22.015  15.054 -25.402  1.00  0.00     0.007 C 
ENDBRANCH   8   9
ENDBRANCH   1   8
BRANCH   3  12
ATOM     12  C   UNL     1     -20.843  17.915 -29.933  1.00  0.00     0.013 C 
ATOM     13  C   UNL     1     -20.887  18.640 -28.586  1.00  0.00     0.012 C 
ATOM     14  C   UNL     1     -21.631  18.687 -30.994  1.00  0.00     0.012 C 
ENDBRANCH   3  12
TORSDOF 3
ENDMDL
MODEL 4
REMARK VINA RESULT:    -5.060      4.084      5.310
REMARK INTER + INTRA:          -6.488
REMARK INTER:                  -6.141
REMARK INTRA:                  -0.347
REMARK UNBOUND:                -0.541
REMARK SMILES C#CCOc1cc(C(C)C)ccc1C
REMARK SMILES IDX 5 1 6 2 7 3 11 4 12 5 13 6 14 7 4 8 3 9 2 10 1 11 8 12 9 13
REMARK SMILES IDX 10 14
REMARK H PARENT
ROOT
ATOM      1  C   UNL     1     -20.049  17.466 -29.011  1.00  0.00     0.123 A 
ATOM      2  C   UNL     1     -20.005  16.109 -28.669  1.00  0.00     0.050 A 
ATOM      3  C   UNL     1     -20.942  15.197 -29.188  1.00  0.00    -0.042 A 
ATOM      4  C   UNL     1     -21.930  15.673 -30.059  1.00  0.00     0.004 A 
ATOM      5  C   UNL     1     -21.981  17.023 -30.404  1.00  0.00     0.007 A 
ATOM      6  C   UNL     1     -21.046  17.929 -29.886  1.00  0.00    -0.009 A 
ATOM      7  C   UNL     1     -21.119  19.380 -30.273  1.00  0.00     0.048 C 
ENDROOT
BRANCH   1   8
ATOM      8  O   UNL     1     -19.178  18.422 -28.553  1.00  0.00    -0.481 OA
BRANCH   8   9
ATOM      9  C   UNL     1     -19.238  18.766 -27.172  1.00  0.00     0.318 C 
ATOM     10  C   UNL     1     -18.376  19.933 -26.934  1.00  0.00    -0.065 C 
ATOM     11  C   UNL     1     -17.670  20.887 -26.740  1.00  0.00     0.007 C 
ENDBRANCH   8   9
ENDBRANCH   1   8
BRANCH   3  12
ATOM     12  C   UNL     1     -20.868  13.731 -28.796  1.00  0.00     0.013 C 
ATOM     13  C   UNL     1     -22.248  13.069 -28.828  1.00  0.00     0.012 C 
ATOM     14  C   UNL     1     -20.205  13.546 -27.429  1.00  0.00     0.012 C 
ENDBRANCH   3  12
TORSDOF 3
ENDMDL
MODEL 5
REMARK VINA RESULT:    -5.058      3.350      5.080
REMARK INTER + INTRA:          -6.486
REMARK INTER:                  -5.866
REMARK INTRA:                  -0.620
REMARK UNBOUND:                -0.541
REMARK SMILES C#CCOc1cc(C(C)C)ccc1C
REMARK SMILES IDX 5 1 6 2 7 3 11 4 12 5 13 6 14 7 4 8 3 9 2 10 1 11 8 12 9 13
REMARK SMILES IDX 10 14
REMARK H PARENT
ROOT
ATOM      1  C   UNL     1     -20.645  16.017 -29.372  1.00  0.00     0.123 A 
ATOM      2  C   UNL     1     -21.625  16.746 -30.057  1.00  0.00     0.050 A 
ATOM      3  C   UNL     1     -22.759  16.113 -30.597  1.00  0.00    -0.042 A 
ATOM      4  C   UNL     1     -22.892  14.728 -30.439  1.00  0.00     0.004 A 
ATOM      5  C   UNL     1     -21.921  13.994 -29.758  1.00  0.00     0.007 A 
ATOM      6  C   UNL     1     -20.793  14.628 -29.221  1.00  0.00    -0.009 A 
ATOM      7  C   UNL     1     -19.759  13.817 -28.490  1.00  0.00     0.048 C 
ENDROOT
BRANCH   1   8
ATOM      8  O   UNL     1     -19.511  16.552 -28.815  1.00  0.00    -0.481 OA
BRANCH   8   9
ATOM      9  C   UNL     1     -19.670  17.628 -27.894  1.00  0.00     0.318 C 
ATOM     10  C   UNL     1     -20.234  17.105 -26.642  1.00  0.00    -0.065 C 
ATOM     11  C   UNL     1     -20.696  16.676 -25.618  1.00  0.00     0.007 C 
ENDBRANCH   8   9
ENDBRANCH   1   8
BRANCH   3  12
ATOM     12  C   UNL     1     -23.803  16.933 -31.335  1.00  0.00     0.013 C 
ATOM     13  C   UNL     1     -23.607  16.859 -32.851  1.00  0.00     0.012 C 
ATOM     14  C   UNL     1     -23.819  18.386 -30.857  1.00  0.00     0.012 C 
ENDBRANCH   3  12
TORSDOF 3
ENDMDL
MODEL 6
REMARK VINA RESULT:    -5.039      4.584      7.008
REMARK INTER + INTRA:          -6.463
REMARK INTER:                  -6.106
REMARK INTRA:                  -0.358
REMARK UNBOUND:                -0.541
REMARK SMILES C#CCOc1cc(C(C)C)ccc1C
REMARK SMILES IDX 5 1 6 2 7 3 11 4 12 5 13 6 14 7 4 8 3 9 2 10 1 11 8 12 9 13
REMARK SMILES IDX 10 14
REMARK H PARENT
ROOT
ATOM      1  C   UNL     1     -22.048  17.164 -30.560  1.00  0.00     0.123 A 
ATOM      2  C   UNL     1     -21.196  16.672 -29.563  1.00  0.00     0.050 A 
ATOM      3  C   UNL     1     -21.224  15.318 -29.185  1.00  0.00    -0.042 A 
ATOM      4  C   UNL     1     -22.126  14.461 -29.827  1.00  0.00     0.004 A 
ATOM      5  C   UNL     1     -22.978  14.942 -30.821  1.00  0.00     0.007 A 
ATOM      6  C   UNL     1     -22.948  16.292 -31.195  1.00  0.00    -0.009 A 
ATOM      7  C   UNL     1     -23.875  16.789 -32.270  1.00  0.00     0.048 C 
ENDROOT
BRANCH   1   8
ATOM      8  O   UNL     1     -22.088  18.466 -30.990  1.00  0.00    -0.481 OA
BRANCH   8   9
ATOM      9  C   UNL     1     -20.961  19.291 -30.709  1.00  0.00     0.318 C 
ATOM     10  C   UNL     1     -20.625  20.064 -31.915  1.00  0.00    -0.065 C 
ATOM     11  C   UNL     1     -20.351  20.695 -32.900  1.00  0.00     0.007 C 
ENDBRANCH   8   9
ENDBRANCH   1   8
BRANCH   3  12
ATOM     12  C   UNL     1     -20.287  14.817 -28.100  1.00  0.00     0.013 C 
ATOM     13  C   UNL     1     -19.290  13.792 -28.646  1.00  0.00     0.012 C 
ATOM     14  C   UNL     1     -21.059  14.245 -26.909  1.00  0.00     0.012 C 
ENDBRANCH   3  12
TORSDOF 3
ENDMDL
MODEL 7
REMARK VINA RESULT:    -4.998      1.597      3.224
REMARK INTER + INTRA:          -6.416
REMARK INTER:                  -5.826
REMARK INTRA:                  -0.589
REMARK UNBOUND:                -0.541
REMARK SMILES C#CCOc1cc(C(C)C)ccc1C
REMARK SMILES IDX 5 1 6 2 7 3 11 4 12 5 13 6 14 7 4 8 3 9 2 10 1 11 8 12 9 13
REMARK SMILES IDX 10 14
REMARK H PARENT
ROOT
ATOM      1  C   UNL     1     -22.137  15.527 -25.373  1.00  0.00     0.123 A 
ATOM      2  C   UNL     1     -22.693  15.250 -26.628  1.00  0.00     0.050 A 
ATOM      3  C   UNL     1     -22.057  14.378 -27.529  1.00  0.00    -0.042 A 
ATOM      4  C   UNL     1     -20.847  13.786 -27.148  1.00  0.00     0.004 A 
ATOM      5  C   UNL     1     -20.286  14.056 -25.900  1.00  0.00     0.007 A 
ATOM      6  C   UNL     1     -20.922  14.925 -25.004  1.00  0.00    -0.009 A 
ATOM      7  C   UNL     1     -20.300  15.202 -23.663  1.00  0.00     0.048 C 
ENDROOT
BRANCH   1   8
ATOM      8  O   UNL     1     -22.688  16.362 -24.434  1.00  0.00    -0.481 OA
BRANCH   8   9
ATOM      9  C   UNL     1     -22.865  17.731 -24.788  1.00  0.00     0.318 C 
ATOM     10  C   UNL     1     -21.549  18.388 -24.823  1.00  0.00    -0.065 C 
ATOM     11  C   UNL     1     -20.474  18.924 -24.852  1.00  0.00     0.007 C 
ENDBRANCH   8   9
ENDBRANCH   1   8
BRANCH   3  12
ATOM     12  C   UNL     1     -22.687  14.099 -28.883  1.00  0.00     0.013 C 
ATOM     13  C   UNL     1     -22.507  12.637 -29.297  1.00  0.00     0.012 C 
ATOM     14  C   UNL     1     -22.145  15.042 -29.961  1.00  0.00     0.012 C 
ENDBRANCH   3  12
TORSDOF 3
ENDMDL
MODEL 8
REMARK VINA RESULT:    -4.880      3.201      6.089
REMARK INTER + INTRA:          -6.277
REMARK INTER:                  -5.774
REMARK INTRA:                  -0.502
REMARK UNBOUND:                -0.541
REMARK SMILES C#CCOc1cc(C(C)C)ccc1C
REMARK SMILES IDX 5 1 6 2 7 3 11 4 12 5 13 6 14 7 4 8 3 9 2 10 1 11 8 12 9 13
REMARK SMILES IDX 10 14
REMARK H PARENT
ROOT
ATOM      1  C   UNL     1     -21.218  15.769 -28.976  1.00  0.00     0.123 A 
ATOM      2  C   UNL     1     -20.573  15.948 -27.746  1.00  0.00     0.050 A 
ATOM      3  C   UNL     1     -20.876  15.133 -26.640  1.00  0.00    -0.042 A 
ATOM      4  C   UNL     1     -21.844  14.132 -26.789  1.00  0.00     0.004 A 
ATOM      5  C   UNL     1     -22.491  13.947 -28.011  1.00  0.00     0.007 A 
ATOM      6  C   UNL     1     -22.187  14.760 -29.111  1.00  0.00    -0.009 A 
ATOM      7  C   UNL     1     -22.896  14.542 -30.419  1.00  0.00     0.048 C 
ENDROOT
BRANCH   1   8
ATOM      8  O   UNL     1     -20.985  16.515 -30.103  1.00  0.00    -0.481 OA
BRANCH   8   9
ATOM      9  C   UNL     1     -21.227  17.918 -30.031  1.00  0.00     0.318 C 
ATOM     10  C   UNL     1     -22.252  18.275 -31.023  1.00  0.00    -0.065 C 
ATOM     11  C   UNL     1     -23.089  18.568 -31.834  1.00  0.00     0.007 C 
ENDBRANCH   8   9
ENDBRANCH   1   8
BRANCH   3  12
ATOM     12  C   UNL     1     -20.159  15.354 -25.320  1.00  0.00     0.013 C 
ATOM     13  C   UNL     1     -20.841  14.600 -24.175  1.00  0.00     0.012 C 
ATOM     14  C   UNL     1     -20.029  16.843 -24.990  1.00  0.00     0.012 C 
ENDBRANCH   3  12
TORSDOF 3
ENDMDL
