MODEL 1
REMARK VINA RESULT:    -7.693      0.000      0.000
REMARK INTER + INTRA:         -10.553
REMARK INTER:                  -9.942
REMARK INTRA:                  -0.611
REMARK UNBOUND:                -0.611
REMARK SMILES Cc1ccc(-c2cc(COc3cc(C(C)C)ccc3C)on2)cc1
REMARK SMILES IDX 9 1 8 2 6 3 7 4 22 5 21 6 5 7 2 8 3 9 24 10 4 11 23 12 1 13
REMARK SMILES IDX 10 14 11 15 12 16 19 17 13 18 18 19 17 20 20 21 14 22 15 23
REMARK SMILES IDX 16 24
REMARK H PARENT
ROOT
ATOM      1  C   UNL     1     -19.110  18.122 -28.351  1.00  0.00     0.307 C 
ENDROOT
BRANCH   1   2
ATOM      2  C   UNL     1     -19.124  19.087 -27.227  1.00  0.00     0.174 A 
ATOM      3  C   UNL     1     -19.156  20.716 -25.717  1.00  0.00     0.114 A 
ATOM      4  C   UNL     1     -19.171  20.455 -27.115  1.00  0.00     0.081 A 
ATOM      5  N   UNL     1     -19.105  19.553 -25.042  1.00  0.00    -0.079 NA
ATOM      6  O   UNL     1     -19.085  18.547 -25.983  1.00  0.00    -0.357 OA
BRANCH   3   7
ATOM      7  C   UNL     1     -19.189  22.010 -25.026  1.00  0.00     0.004 A 
ATOM      8  C   UNL     1     -19.274  24.507 -23.695  1.00  0.00    -0.051 A 
ATOM      9  C   UNL     1     -20.274  23.554 -23.481  1.00  0.00     0.004 A 
ATOM     10  C   UNL     1     -18.221  24.198 -24.560  1.00  0.00     0.004 A 
ATOM     11  C   UNL     1     -20.234  22.323 -24.144  1.00  0.00     0.011 A 
ATOM     12  C   UNL     1     -18.182  22.965 -25.223  1.00  0.00     0.011 A 
ATOM     13  C   UNL     1     -19.299  25.813 -22.960  1.00  0.00     0.044 C 
ENDBRANCH   3   7
ENDBRANCH   1   2
BRANCH   1  14
ATOM     14  O   UNL     1     -20.272  18.371 -29.140  1.00  0.00    -0.485 OA
BRANCH  14  15
ATOM     15  C   UNL     1     -20.963  17.286 -29.613  1.00  0.00     0.123 A 
ATOM     16  C   UNL     1     -20.779  15.966 -29.181  1.00  0.00     0.050 A 
ATOM     17  C   UNL     1     -21.917  17.565 -30.606  1.00  0.00    -0.009 A 
ATOM     18  C   UNL     1     -21.534  14.912 -29.722  1.00  0.00    -0.042 A 
ATOM     19  C   UNL     1     -22.671  16.516 -31.148  1.00  0.00     0.007 A 
ATOM     20  C   UNL     1     -22.482  15.204 -30.710  1.00  0.00     0.004 A 
ATOM     21  C   UNL     1     -22.139  18.970 -31.092  1.00  0.00     0.048 C 
BRANCH  18  22
ATOM     22  C   UNL     1     -21.311  13.491 -29.231  1.00  0.00     0.013 C 
ATOM     23  C   UNL     1     -20.743  13.470 -27.809  1.00  0.00     0.012 C 
ATOM     24  C   UNL     1     -22.590  12.656 -29.322  1.00  0.00     0.012 C 
ENDBRANCH  18  22
ENDBRANCH  14  15
ENDBRANCH   1  14
TORSDOF 5
ENDMDL
MODEL 2
REMARK VINA RESULT:    -7.474      4.817      6.848
REMARK INTER + INTRA:         -10.270
REMARK INTER:                  -9.546
REMARK INTRA:                  -0.724
REMARK UNBOUND:                -0.611
REMARK SMILES Cc1ccc(-c2cc(COc3cc(C(C)C)ccc3C)on2)cc1
REMARK SMILES IDX 9 1 8 2 6 3 7 4 22 5 21 6 5 7 2 8 3 9 24 10 4 11 23 12 1 13
REMARK SMILES IDX 10 14 11 15 12 16 19 17 13 18 18 19 17 20 20 21 14 22 15 23
REMARK SMILES IDX 16 24
REMARK H PARENT
ROOT
ATOM      1  C   UNL     1     -22.448  15.137 -30.937  1.00  0.00     0.307 C 
ENDROOT
BRANCH   1   2
ATOM      2  C   UNL     1     -22.336  14.870 -29.484  1.00  0.00     0.174 A 
ATOM      3  C   UNL     1     -22.060  14.699 -27.287  1.00  0.00     0.114 A 
ATOM      4  C   UNL     1     -21.847  15.557 -28.400  1.00  0.00     0.081 A 
ATOM      5  N   UNL     1     -22.649  13.562 -27.700  1.00  0.00    -0.079 NA
ATOM      6  O   UNL     1     -22.817  13.674 -29.063  1.00  0.00    -0.357 OA
BRANCH   3   7
ATOM      7  C   UNL     1     -21.728  14.928 -25.876  1.00  0.00     0.004 A 
ATOM      8  C   UNL     1     -21.083  15.351 -23.152  1.00  0.00    -0.051 A 
ATOM      9  C   UNL     1     -20.382  14.409 -23.909  1.00  0.00     0.004 A 
ATOM     10  C   UNL     1     -22.093  16.095 -23.767  1.00  0.00     0.004 A 
ATOM     11  C   UNL     1     -20.705  14.198 -25.254  1.00  0.00     0.011 A 
ATOM     12  C   UNL     1     -22.417  15.883 -25.113  1.00  0.00     0.011 A 
ATOM     13  C   UNL     1     -20.715  15.603 -21.720  1.00  0.00     0.044 C 
ENDBRANCH   3   7
ENDBRANCH   1   2
BRANCH   1  14
ATOM     14  O   UNL     1     -23.620  15.925 -31.135  1.00  0.00    -0.485 OA
BRANCH  14  15
ATOM     15  C   UNL     1     -23.448  17.250 -31.445  1.00  0.00     0.123 A 
ATOM     16  C   UNL     1     -22.249  17.959 -31.305  1.00  0.00     0.050 A 
ATOM     17  C   UNL     1     -24.589  17.906 -31.936  1.00  0.00    -0.009 A 
ATOM     18  C   UNL     1     -22.163  19.319 -31.648  1.00  0.00    -0.042 A 
ATOM     19  C   UNL     1     -24.508  19.262 -32.279  1.00  0.00     0.007 A 
ATOM     20  C   UNL     1     -23.308  19.960 -32.137  1.00  0.00     0.004 A 
ATOM     21  C   UNL     1     -25.892  17.174 -32.098  1.00  0.00     0.048 C 
BRANCH  18  22
ATOM     22  C   UNL     1     -20.846  20.059 -31.485  1.00  0.00     0.013 C 
ATOM     23  C   UNL     1     -20.506  20.883 -32.730  1.00  0.00     0.012 C 
ATOM     24  C   UNL     1     -20.846  20.938 -30.231  1.00  0.00     0.012 C 
ENDBRANCH  18  22
ENDBRANCH  14  15
ENDBRANCH   1  14
TORSDOF 5
ENDMDL
MODEL 3
REMARK VINA RESULT:    -7.465      0.932      2.717
REMARK INTER + INTRA:         -10.259
REMARK INTER:                  -9.636
REMARK INTRA:                  -0.623
REMARK UNBOUND:                -0.611
REMARK SMILES Cc1ccc(-c2cc(COc3cc(C(C)C)ccc3C)on2)cc1
REMARK SMILES IDX 9 1 8 2 6 3 7 4 22 5 21 6 5 7 2 8 3 9 24 10 4 11 23 12 1 13
REMARK SMILES IDX 10 14 11 15 12 16 19 17 13 18 18 19 17 20 20 21 14 22 15 23
REMARK SMILES IDX 16 24
REMARK H PARENT
ROOT
ATOM      1  C   UNL     1     -19.326  17.714 -28.606  1.00  0.00     0.307 C 
ENDROOT
BRANCH   1   2
ATOM      2  C   UNL     1     -19.259  18.686 -27.491  1.00  0.00     0.174 A 
ATOM      3  C   UNL     1     -19.177  20.325 -25.993  1.00  0.00     0.114 A 
ATOM      4  C   UNL     1     -19.284  20.055 -27.385  1.00  0.00     0.081 A 
ATOM      5  N   UNL     1     -19.094  19.166 -25.314  1.00  0.00    -0.079 NA
ATOM      6  O   UNL     1     -19.145  18.154 -26.248  1.00  0.00    -0.357 OA
BRANCH   3   7
ATOM      7  C   UNL     1     -19.153  21.624 -25.311  1.00  0.00     0.004 A 
ATOM      8  C   UNL     1     -19.127  24.130 -23.995  1.00  0.00    -0.051 A 
ATOM      9  C   UNL     1     -20.142  23.204 -23.738  1.00  0.00     0.004 A 
ATOM     10  C   UNL     1     -18.114  23.789 -24.895  1.00  0.00     0.004 A 
ATOM     11  C   UNL     1     -20.156  21.968 -24.393  1.00  0.00     0.011 A 
ATOM     12  C   UNL     1     -18.129  22.552 -25.551  1.00  0.00     0.011 A 
ATOM     13  C   UNL     1     -19.092  25.441 -23.269  1.00  0.00     0.044 C 
ENDBRANCH   3   7
ENDBRANCH   1   2
BRANCH   1  14
ATOM     14  O   UNL     1     -19.957  16.536 -28.106  1.00  0.00    -0.485 OA
BRANCH  14  15
ATOM     15  C   UNL     1     -20.906  15.940 -28.897  1.00  0.00     0.123 A 
ATOM     16  C   UNL     1     -21.506  16.531 -30.016  1.00  0.00     0.050 A 
ATOM     17  C   UNL     1     -21.273  14.638 -28.519  1.00  0.00    -0.009 A 
ATOM     18  C   UNL     1     -22.471  15.844 -30.771  1.00  0.00    -0.042 A 
ATOM     19  C   UNL     1     -22.235  13.950 -29.269  1.00  0.00     0.007 A 
ATOM     20  C   UNL     1     -22.828  14.547 -30.383  1.00  0.00     0.004 A 
ATOM     21  C   UNL     1     -20.647  13.975 -27.323  1.00  0.00     0.048 C 
BRANCH  18  22
ATOM     22  C   UNL     1     -23.104  16.514 -31.980  1.00  0.00     0.013 C 
ATOM     23  C   UNL     1     -24.627  16.594 -31.846  1.00  0.00     0.012 C 
ATOM     24  C   UNL     1     -22.504  17.899 -32.234  1.00  0.00     0.012 C 
ENDBRANCH  18  22
ENDBRANCH  14  15
ENDBRANCH   1  14
TORSDOF 5
ENDMDL
MODEL 4
REMARK VINA RESULT:    -7.449      2.508      4.098
REMARK INTER + INTRA:         -10.238
REMARK INTER:                  -9.380
REMARK INTRA:                  -0.857
REMARK UNBOUND:                -0.611
REMARK SMILES Cc1ccc(-c2cc(COc3cc(C(C)C)ccc3C)on2)cc1
REMARK SMILES IDX 9 1 8 2 6 3 7 4 22 5 21 6 5 7 2 8 3 9 24 10 4 11 23 12 1 13
REMARK SMILES IDX 10 14 11 15 12 16 19 17 13 18 18 19 17 20 20 21 14 22 15 23
REMARK SMILES IDX 16 24
REMARK H PARENT
ROOT
ATOM      1  C   UNL     1     -23.671  17.666 -26.272  1.00  0.00     0.307 C 
ENDROOT
BRANCH   1   2
ATOM      2  C   UNL     1     -22.475  18.487 -26.569  1.00  0.00     0.174 A 
ATOM      3  C   UNL     1     -20.635  19.717 -26.765  1.00  0.00     0.114 A 
ATOM      4  C   UNL     1     -21.469  19.053 -25.824  1.00  0.00     0.081 A 
ATOM      5  N   UNL     1     -21.129  19.546 -28.005  1.00  0.00    -0.079 NA
ATOM      6  O   UNL     1     -22.270  18.783 -27.877  1.00  0.00    -0.357 OA
BRANCH   3   7
ATOM      7  C   UNL     1     -19.411  20.489 -26.521  1.00  0.00     0.004 A 
ATOM      8  C   UNL     1     -17.039  21.960 -26.050  1.00  0.00    -0.051 A 
ATOM      9  C   UNL     1     -17.042  20.885 -26.943  1.00  0.00     0.004 A 
ATOM     10  C   UNL     1     -18.231  22.310 -25.410  1.00  0.00     0.004 A 
ATOM     11  C   UNL     1     -18.214  20.155 -27.170  1.00  0.00     0.011 A 
ATOM     12  C   UNL     1     -19.404  21.579 -25.639  1.00  0.00     0.011 A 
ATOM     13  C   UNL     1     -15.792  22.764 -25.831  1.00  0.00     0.044 C 
ENDBRANCH   3   7
ENDBRANCH   1   2
BRANCH   1  14
ATOM     14  O   UNL     1     -23.238  16.548 -25.500  1.00  0.00    -0.485 OA
BRANCH  14  15
ATOM     15  C   UNL     1     -22.423  15.631 -26.113  1.00  0.00     0.123 A 
ATOM     16  C   UNL     1     -22.593  15.150 -27.417  1.00  0.00     0.050 A 
ATOM     17  C   UNL     1     -21.348  15.167 -25.336  1.00  0.00    -0.009 A 
ATOM     18  C   UNL     1     -21.706  14.209 -27.966  1.00  0.00    -0.042 A 
ATOM     19  C   UNL     1     -20.462  14.228 -25.881  1.00  0.00     0.007 A 
ATOM     20  C   UNL     1     -20.639  13.755 -27.181  1.00  0.00     0.004 A 
ATOM     21  C   UNL     1     -21.137  15.664 -23.933  1.00  0.00     0.048 C 
BRANCH  18  22
ATOM     22  C   UNL     1     -21.918  13.706 -29.385  1.00  0.00     0.013 C 
ATOM     23  C   UNL     1     -22.627  12.349 -29.401  1.00  0.00     0.012 C 
ATOM     24  C   UNL     1     -22.675  14.729 -30.237  1.00  0.00     0.012 C 
ENDBRANCH  18  22
ENDBRANCH  14  15
ENDBRANCH   1  14
TORSDOF 5
ENDMDL
MODEL 5
REMARK VINA RESULT:    -7.379      4.134      6.060
REMARK INTER + INTRA:         -10.147
REMARK INTER:                  -9.211
REMARK INTRA:                  -0.936
REMARK UNBOUND:                -0.611
REMARK SMILES Cc1ccc(-c2cc(COc3cc(C(C)C)ccc3C)on2)cc1
REMARK SMILES IDX 9 1 8 2 6 3 7 4 22 5 21 6 5 7 2 8 3 9 24 10 4 11 23 12 1 13
REMARK SMILES IDX 10 14 11 15 12 16 19 17 13 18 18 19 17 20 20 21 14 22 15 23
REMARK SMILES IDX 16 24
REMARK H PARENT
ROOT
ATOM      1  C   UNL     1     -19.582  17.664 -27.875  1.00  0.00     0.307 C 
ENDROOT
BRANCH   1   2
ATOM      2  C   UNL     1     -20.322  17.271 -26.653  1.00  0.00     0.174 A 
ATOM      3  C   UNL     1     -21.235  16.530 -24.769  1.00  0.00     0.114 A 
ATOM      4  C   UNL     1     -20.088  16.418 -25.602  1.00  0.00     0.081 A 
ATOM      5  N   UNL     1     -22.100  17.409 -25.307  1.00  0.00    -0.079 NA
ATOM      6  O   UNL     1     -21.528  17.865 -26.475  1.00  0.00    -0.357 OA
BRANCH   3   7
ATOM      7  C   UNL     1     -21.521  15.840 -23.505  1.00  0.00     0.004 A 
ATOM      8  C   UNL     1     -22.070  14.527 -21.059  1.00  0.00    -0.051 A 
ATOM      9  C   UNL     1     -22.588  15.800 -21.313  1.00  0.00     0.004 A 
ATOM     10  C   UNL     1     -21.294  13.905 -22.040  1.00  0.00     0.004 A 
ATOM     11  C   UNL     1     -22.312  16.450 -22.521  1.00  0.00     0.011 A 
ATOM     12  C   UNL     1     -21.017  14.557 -23.248  1.00  0.00     0.011 A 
ATOM     13  C   UNL     1     -22.394  13.816 -19.779  1.00  0.00     0.044 C 
ENDBRANCH   3   7
ENDBRANCH   1   2
BRANCH   1  14
ATOM     14  O   UNL     1     -19.500  16.511 -28.711  1.00  0.00    -0.485 OA
BRANCH  14  15
ATOM     15  C   UNL     1     -20.640  16.120 -29.366  1.00  0.00     0.123 A 
ATOM     16  C   UNL     1     -21.495  16.975 -30.071  1.00  0.00     0.050 A 
ATOM     17  C   UNL     1     -20.932  14.747 -29.298  1.00  0.00    -0.009 A 
ATOM     18  C   UNL     1     -22.645  16.486 -30.714  1.00  0.00    -0.042 A 
ATOM     19  C   UNL     1     -22.077  14.256 -29.938  1.00  0.00     0.007 A 
ATOM     20  C   UNL     1     -22.924  15.116 -30.638  1.00  0.00     0.004 A 
ATOM     21  C   UNL     1     -20.033  13.802 -28.549  1.00  0.00     0.048 C 
BRANCH  18  22
ATOM     22  C   UNL     1     -23.553  17.441 -31.470  1.00  0.00     0.013 C 
ATOM     23  C   UNL     1     -22.863  18.782 -31.737  1.00  0.00     0.012 C 
ATOM     24  C   UNL     1     -24.063  16.821 -32.773  1.00  0.00     0.012 C 
ENDBRANCH  18  22
ENDBRANCH  14  15
ENDBRANCH   1  14
TORSDOF 5
ENDMDL
MODEL 6
REMARK VINA RESULT:    -7.290      1.538      2.645
REMARK INTER + INTRA:         -10.032
REMARK INTER:                  -9.416
REMARK INTRA:                  -0.616
REMARK UNBOUND:                -0.611
REMARK SMILES Cc1ccc(-c2cc(COc3cc(C(C)C)ccc3C)on2)cc1
REMARK SMILES IDX 9 1 8 2 6 3 7 4 22 5 21 6 5 7 2 8 3 9 24 10 4 11 23 12 1 13
REMARK SMILES IDX 10 14 11 15 12 16 19 17 13 18 18 19 17 20 20 21 14 22 15 23
REMARK SMILES IDX 16 24
REMARK H PARENT
ROOT
ATOM      1  C   UNL     1     -19.645  18.421 -27.757  1.00  0.00     0.307 C 
ENDROOT
BRANCH   1   2
ATOM      2  C   UNL     1     -19.253  19.599 -26.950  1.00  0.00     0.174 A 
ATOM      3  C   UNL     1     -18.912  21.408 -25.706  1.00  0.00     0.114 A 
ATOM      4  C   UNL     1     -19.925  20.579 -26.261  1.00  0.00     0.081 A 
ATOM      5  N   UNL     1     -17.701  20.935 -26.053  1.00  0.00    -0.079 NA
ATOM      6  O   UNL     1     -17.919  19.814 -26.824  1.00  0.00    -0.357 OA
BRANCH   3   7
ATOM      7  C   UNL     1     -19.063  22.608 -24.875  1.00  0.00     0.004 A 
ATOM      8  C   UNL     1     -19.375  24.921 -23.273  1.00  0.00    -0.051 A 
ATOM      9  C   UNL     1     -20.292  23.870 -23.188  1.00  0.00     0.004 A 
ATOM     10  C   UNL     1     -18.291  24.802 -24.146  1.00  0.00     0.004 A 
ATOM     11  C   UNL     1     -20.139  22.729 -23.983  1.00  0.00     0.011 A 
ATOM     12  C   UNL     1     -18.139  23.661 -24.943  1.00  0.00     0.011 A 
ATOM     13  C   UNL     1     -19.519  26.129 -22.396  1.00  0.00     0.044 C 
ENDBRANCH   3   7
ENDBRANCH   1   2
BRANCH   1  14
ATOM     14  O   UNL     1     -20.736  17.791 -27.087  1.00  0.00    -0.485 OA
BRANCH  14  15
ATOM     15  C   UNL     1     -20.870  16.434 -27.230  1.00  0.00     0.123 A 
ATOM     16  C   UNL     1     -21.343  15.791 -28.381  1.00  0.00     0.050 A 
ATOM     17  C   UNL     1     -20.493  15.671 -26.113  1.00  0.00    -0.009 A 
ATOM     18  C   UNL     1     -21.448  14.391 -28.439  1.00  0.00    -0.042 A 
ATOM     19  C   UNL     1     -20.596  14.274 -26.168  1.00  0.00     0.007 A 
ATOM     20  C   UNL     1     -21.068  13.642 -27.319  1.00  0.00     0.004 A 
ATOM     21  C   UNL     1     -19.981  16.331 -24.863  1.00  0.00     0.048 C 
BRANCH  18  22
ATOM     22  C   UNL     1     -21.965  13.723 -29.703  1.00  0.00     0.013 C 
ATOM     23  C   UNL     1     -22.613  12.369 -29.399  1.00  0.00     0.012 C 
ATOM     24  C   UNL     1     -22.932  14.633 -30.465  1.00  0.00     0.012 C 
ENDBRANCH  18  22
ENDBRANCH  14  15
ENDBRANCH   1  14
TORSDOF 5
ENDMDL
MODEL 7
REMARK VINA RESULT:    -7.271      4.596      6.045
REMARK INTER + INTRA:         -10.007
REMARK INTER:                  -9.127
REMARK INTRA:                  -0.880
REMARK UNBOUND:                -0.611
REMARK SMILES Cc1ccc(-c2cc(COc3cc(C(C)C)ccc3C)on2)cc1
REMARK SMILES IDX 9 1 8 2 6 3 7 4 22 5 21 6 5 7 2 8 3 9 24 10 4 11 23 12 1 13
REMARK SMILES IDX 10 14 11 15 12 16 19 17 13 18 18 19 17 20 20 21 14 22 15 23
REMARK SMILES IDX 16 24
REMARK H PARENT
ROOT
ATOM      1  C   UNL     1     -22.523  13.960 -28.839  1.00  0.00     0.307 C 
ENDROOT
BRANCH   1   2
ATOM      2  C   UNL     1     -22.156  14.321 -27.450  1.00  0.00     0.174 A 
ATOM      3  C   UNL     1     -21.814  15.002 -25.364  1.00  0.00     0.114 A 
ATOM      4  C   UNL     1     -22.701  15.113 -26.470  1.00  0.00     0.081 A 
ATOM      5  N   UNL     1     -20.797  14.180 -25.682  1.00  0.00    -0.079 NA
ATOM      6  O   UNL     1     -21.014  13.761 -26.976  1.00  0.00    -0.357 OA
BRANCH   3   7
ATOM      7  C   UNL     1     -21.908  15.641 -24.046  1.00  0.00     0.004 A 
ATOM      8  C   UNL     1     -22.085  16.890 -21.512  1.00  0.00    -0.051 A 
ATOM      9  C   UNL     1     -22.432  17.587 -22.672  1.00  0.00     0.004 A 
ATOM     10  C   UNL     1     -21.670  15.560 -21.621  1.00  0.00     0.004 A 
ATOM     11  C   UNL     1     -22.339  16.970 -23.925  1.00  0.00     0.011 A 
ATOM     12  C   UNL     1     -21.578  14.944 -22.875  1.00  0.00     0.011 A 
ATOM     13  C   UNL     1     -22.216  17.540 -20.167  1.00  0.00     0.044 C 
ENDBRANCH   3   7
ENDBRANCH   1   2
BRANCH   1  14
ATOM     14  O   UNL     1     -21.579  14.588 -29.705  1.00  0.00    -0.485 OA
BRANCH  14  15
ATOM     15  C   UNL     1     -21.886  15.837 -30.179  1.00  0.00     0.123 A 
ATOM     16  C   UNL     1     -22.954  16.132 -31.035  1.00  0.00     0.050 A 
ATOM     17  C   UNL     1     -21.037  16.871 -29.747  1.00  0.00    -0.009 A 
ATOM     18  C   UNL     1     -23.195  17.445 -31.472  1.00  0.00    -0.042 A 
ATOM     19  C   UNL     1     -21.275  18.181 -30.181  1.00  0.00     0.007 A 
ATOM     20  C   UNL     1     -22.342  18.465 -31.034  1.00  0.00     0.004 A 
ATOM     21  C   UNL     1     -19.882  16.588 -28.827  1.00  0.00     0.048 C 
BRANCH  18  22
ATOM     22  C   UNL     1     -24.363  17.731 -32.402  1.00  0.00     0.013 C 
ATOM     23  C   UNL     1     -25.481  16.698 -32.235  1.00  0.00     0.012 C 
ATOM     24  C   UNL     1     -24.899  19.152 -32.212  1.00  0.00     0.012 C 
ENDBRANCH  18  22
ENDBRANCH  14  15
ENDBRANCH   1  14
TORSDOF 5
ENDMDL
MODEL 8
REMARK VINA RESULT:    -7.184      1.217      3.403
REMARK INTER + INTRA:          -9.896
REMARK INTER:                  -9.154
REMARK INTRA:                  -0.742
REMARK UNBOUND:                -0.611
REMARK SMILES Cc1ccc(-c2cc(COc3cc(C(C)C)ccc3C)on2)cc1
REMARK SMILES IDX 9 1 8 2 6 3 7 4 22 5 21 6 5 7 2 8 3 9 24 10 4 11 23 12 1 13
REMARK SMILES IDX 10 14 11 15 12 16 19 17 13 18 18 19 17 20 20 21 14 22 15 23
REMARK SMILES IDX 16 24
REMARK H PARENT
ROOT
ATOM      1  C   UNL     1     -19.490  16.808 -28.576  1.00  0.00     0.307 C 
ENDROOT
BRANCH   1   2
ATOM      2  C   UNL     1     -19.377  17.886 -27.566  1.00  0.00     0.174 A 
ATOM      3  C   UNL     1     -19.168  19.660 -26.246  1.00  0.00     0.114 A 
ATOM      4  C   UNL     1     -19.153  19.241 -27.605  1.00  0.00     0.081 A 
ATOM      5  N   UNL     1     -19.392  18.600 -25.449  1.00  0.00    -0.079 NA
ATOM      6  O   UNL     1     -19.520  17.503 -26.273  1.00  0.00    -0.357 OA
BRANCH   3   7
ATOM      7  C   UNL     1     -18.981  21.011 -25.702  1.00  0.00     0.004 A 
ATOM      8  C   UNL     1     -18.641  23.617 -24.652  1.00  0.00    -0.051 A 
ATOM      9  C   UNL     1     -19.687  22.804 -24.208  1.00  0.00     0.004 A 
ATOM     10  C   UNL     1     -17.754  23.115 -25.607  1.00  0.00     0.004 A 
ATOM     11  C   UNL     1     -19.857  21.518 -24.731  1.00  0.00     0.011 A 
ATOM     12  C   UNL     1     -17.925  21.827 -26.131  1.00  0.00     0.011 A 
ATOM     13  C   UNL     1     -18.438  24.983 -24.067  1.00  0.00     0.044 C 
ENDBRANCH   3   7
ENDBRANCH   1   2
BRANCH   1  14
ATOM     14  O   UNL     1     -20.874  16.481 -28.694  1.00  0.00    -0.485 OA
BRANCH  14  15
ATOM     15  C   UNL     1     -21.521  16.862 -29.841  1.00  0.00     0.123 A 
ATOM     16  C   UNL     1     -21.498  18.152 -30.385  1.00  0.00     0.050 A 
ATOM     17  C   UNL     1     -22.250  15.849 -30.486  1.00  0.00    -0.009 A 
ATOM     18  C   UNL     1     -22.192  18.454 -31.569  1.00  0.00    -0.042 A 
ATOM     19  C   UNL     1     -22.943  16.147 -31.666  1.00  0.00     0.007 A 
ATOM     20  C   UNL     1     -22.914  17.435 -32.202  1.00  0.00     0.004 A 
ATOM     21  C   UNL     1     -22.294  14.453 -29.928  1.00  0.00     0.048 C 
BRANCH  18  22
ATOM     22  C   UNL     1     -22.147  19.864 -32.133  1.00  0.00     0.013 C 
ATOM     23  C   UNL     1     -23.264  20.738 -31.556  1.00  0.00     0.012 C 
ATOM     24  C   UNL     1     -20.779  20.514 -31.918  1.00  0.00     0.012 C 
ENDBRANCH  18  22
ENDBRANCH  14  15
ENDBRANCH   1  14
TORSDOF 5
ENDMDL
