MODEL 1
REMARK VINA RESULT:    -7.652      0.000      0.000
REMARK INTER + INTRA:         -10.502
REMARK INTER:                  -9.889
REMARK INTRA:                  -0.613
REMARK UNBOUND:                -0.613
REMARK SMILES Cc1ccc(-c2cc(COc3cc(C(C)C)ccc3C)on2)cc1
REMARK SMILES IDX 9 1 8 2 6 3 7 4 22 5 21 6 5 7 2 8 3 9 24 10 4 11 23 12 1 13
REMARK SMILES IDX 10 14 11 15 12 16 19 17 13 18 18 19 17 20 20 21 14 22 15 23
REMARK SMILES IDX 16 24
REMARK H PARENT
ROOT
ATOM      1  C   UNL     1     -19.106  18.078 -28.278  1.00  0.00     0.307 C 
ENDROOT
BRANCH   1   2
ATOM      2  C   UNL     1     -19.132  19.058 -27.167  1.00  0.00     0.174 A 
ATOM      3  C   UNL     1     -19.175  20.707 -25.680  1.00  0.00     0.114 A 
ATOM      4  C   UNL     1     -19.173  20.428 -27.074  1.00  0.00     0.081 A 
ATOM      5  N   UNL     1     -19.139  19.553 -24.988  1.00  0.00    -0.079 NA
ATOM      6  O   UNL     1     -19.112  18.535 -25.916  1.00  0.00    -0.357 OA
BRANCH   3   7
ATOM      7  C   UNL     1     -19.212  22.011 -25.006  1.00  0.00     0.004 A 
ATOM      8  C   UNL     1     -19.263  24.524 -23.706  1.00  0.00    -0.051 A 
ATOM      9  C   UNL     1     -18.230  24.204 -24.590  1.00  0.00     0.004 A 
ATOM     10  C   UNL     1     -20.282  23.593 -23.491  1.00  0.00     0.004 A 
ATOM     11  C   UNL     1     -18.203  22.959 -25.229  1.00  0.00     0.011 A 
ATOM     12  C   UNL     1     -20.254  22.347 -24.130  1.00  0.00     0.011 A 
ATOM     13  C   UNL     1     -19.311  25.871 -23.048  1.00  0.00     0.044 C 
ENDBRANCH   3   7
ENDBRANCH   1   2
BRANCH   1  14
ATOM     14  O   UNL     1     -20.239  18.343 -29.104  1.00  0.00    -0.485 OA
BRANCH  14  15
ATOM     15  C   UNL     1     -20.945  17.268 -29.578  1.00  0.00     0.123 A 
ATOM     16  C   UNL     1     -20.775  15.945 -29.151  1.00  0.00     0.050 A 
ATOM     17  C   UNL     1     -21.900  17.561 -30.564  1.00  0.00    -0.009 A 
ATOM     18  C   UNL     1     -21.545  14.901 -29.692  1.00  0.00    -0.042 A 
ATOM     19  C   UNL     1     -22.670  16.524 -31.107  1.00  0.00     0.007 A 
ATOM     20  C   UNL     1     -22.494  15.208 -30.675  1.00  0.00     0.004 A 
ATOM     21  C   UNL     1     -22.108  18.971 -31.044  1.00  0.00     0.048 C 
BRANCH  18  22
ATOM     22  C   UNL     1     -21.336  13.476 -29.208  1.00  0.00     0.013 C 
ATOM     23  C   UNL     1     -20.752  13.443 -27.793  1.00  0.00     0.012 C 
ATOM     24  C   UNL     1     -22.628  12.660 -29.284  1.00  0.00     0.012 C 
ENDBRANCH  18  22
ENDBRANCH  14  15
ENDBRANCH   1  14
TORSDOF 5
ENDMDL
MODEL 2
REMARK VINA RESULT:    -7.493      2.469      4.098
REMARK INTER + INTRA:         -10.296
REMARK INTER:                  -9.498
REMARK INTRA:                  -0.799
REMARK UNBOUND:                -0.613
REMARK SMILES Cc1ccc(-c2cc(COc3cc(C(C)C)ccc3C)on2)cc1
REMARK SMILES IDX 9 1 8 2 6 3 7 4 22 5 21 6 5 7 2 8 3 9 24 10 4 11 23 12 1 13
REMARK SMILES IDX 10 14 11 15 12 16 19 17 13 18 18 19 17 20 20 21 14 22 15 23
REMARK SMILES IDX 16 24
REMARK H PARENT
ROOT
ATOM      1  C   UNL     1     -23.580  17.478 -26.025  1.00  0.00     0.307 C 
ENDROOT
BRANCH   1   2
ATOM      2  C   UNL     1     -22.388  18.287 -26.372  1.00  0.00     0.174 A 
ATOM      3  C   UNL     1     -20.569  19.532 -26.642  1.00  0.00     0.114 A 
ATOM      4  C   UNL     1     -21.433  18.972 -25.662  1.00  0.00     0.081 A 
ATOM      5  N   UNL     1     -20.997  19.188 -27.871  1.00  0.00    -0.079 NA
ATOM      6  O   UNL     1     -22.126  18.417 -27.697  1.00  0.00    -0.357 OA
BRANCH   3   7
ATOM      7  C   UNL     1     -19.375  20.363 -26.445  1.00  0.00     0.004 A 
ATOM      8  C   UNL     1     -17.085  21.981 -26.062  1.00  0.00    -0.051 A 
ATOM      9  C   UNL     1     -18.269  22.252 -25.371  1.00  0.00     0.004 A 
ATOM     10  C   UNL     1     -17.044  20.886 -26.929  1.00  0.00     0.004 A 
ATOM     11  C   UNL     1     -19.401  21.454 -25.564  1.00  0.00     0.011 A 
ATOM     12  C   UNL     1     -18.179  20.089 -27.123  1.00  0.00     0.011 A 
ATOM     13  C   UNL     1     -15.860  22.815 -25.830  1.00  0.00     0.044 C 
ENDBRANCH   3   7
ENDBRANCH   1   2
BRANCH   1  14
ATOM     14  O   UNL     1     -23.119  16.311 -25.347  1.00  0.00    -0.485 OA
BRANCH  14  15
ATOM     15  C   UNL     1     -22.304  15.454 -26.041  1.00  0.00     0.123 A 
ATOM     16  C   UNL     1     -22.536  15.006 -27.348  1.00  0.00     0.050 A 
ATOM     17  C   UNL     1     -21.160  15.018 -25.351  1.00  0.00    -0.009 A 
ATOM     18  C   UNL     1     -21.645  14.126 -27.984  1.00  0.00    -0.042 A 
ATOM     19  C   UNL     1     -20.269  14.140 -25.983  1.00  0.00     0.007 A 
ATOM     20  C   UNL     1     -20.509  13.699 -27.285  1.00  0.00     0.004 A 
ATOM     21  C   UNL     1     -20.881  15.481 -23.948  1.00  0.00     0.048 C 
BRANCH  18  22
ATOM     22  C   UNL     1     -21.926  13.658 -29.403  1.00  0.00     0.013 C 
ATOM     23  C   UNL     1     -22.596  12.281 -29.419  1.00  0.00     0.012 C 
ATOM     24  C   UNL     1     -22.760  14.681 -30.178  1.00  0.00     0.012 C 
ENDBRANCH  18  22
ENDBRANCH  14  15
ENDBRANCH   1  14
TORSDOF 5
ENDMDL
MODEL 3
REMARK VINA RESULT:    -7.456      0.961      2.915
REMARK INTER + INTRA:         -10.249
REMARK INTER:                  -9.636
REMARK INTRA:                  -0.613
REMARK UNBOUND:                -0.613
REMARK SMILES Cc1ccc(-c2cc(COc3cc(C(C)C)ccc3C)on2)cc1
REMARK SMILES IDX 9 1 8 2 6 3 7 4 22 5 21 6 5 7 2 8 3 9 24 10 4 11 23 12 1 13
REMARK SMILES IDX 10 14 11 15 12 16 19 17 13 18 18 19 17 20 20 21 14 22 15 23
REMARK SMILES IDX 16 24
REMARK H PARENT
ROOT
ATOM      1  C   UNL     1     -19.394  17.590 -28.480  1.00  0.00     0.307 C 
ENDROOT
BRANCH   1   2
ATOM      2  C   UNL     1     -19.305  18.594 -27.394  1.00  0.00     0.174 A 
ATOM      3  C   UNL     1     -19.198  20.274 -25.946  1.00  0.00     0.114 A 
ATOM      4  C   UNL     1     -19.342  19.965 -27.326  1.00  0.00     0.081 A 
ATOM      5  N   UNL     1     -19.084  19.136 -25.237  1.00  0.00    -0.079 NA
ATOM      6  O   UNL     1     -19.151  18.097 -26.141  1.00  0.00    -0.357 OA
BRANCH   3   7
ATOM      7  C   UNL     1     -19.168  21.592 -25.300  1.00  0.00     0.004 A 
ATOM      8  C   UNL     1     -19.131  24.134 -24.056  1.00  0.00    -0.051 A 
ATOM      9  C   UNL     1     -20.142  23.216 -23.763  1.00  0.00     0.004 A 
ATOM     10  C   UNL     1     -18.127  23.769 -24.956  1.00  0.00     0.004 A 
ATOM     11  C   UNL     1     -20.162  21.961 -24.382  1.00  0.00     0.011 A 
ATOM     12  C   UNL     1     -18.148  22.514 -25.576  1.00  0.00     0.011 A 
ATOM     13  C   UNL     1     -19.089  25.466 -23.367  1.00  0.00     0.044 C 
ENDBRANCH   3   7
ENDBRANCH   1   2
BRANCH   1  14
ATOM     14  O   UNL     1     -20.177  16.503 -27.991  1.00  0.00    -0.485 OA
BRANCH  14  15
ATOM     15  C   UNL     1     -21.084  15.937 -28.850  1.00  0.00     0.123 A 
ATOM     16  C   UNL     1     -21.610  16.561 -29.988  1.00  0.00     0.050 A 
ATOM     17  C   UNL     1     -21.487  14.631 -28.525  1.00  0.00    -0.009 A 
ATOM     18  C   UNL     1     -22.537  15.904 -30.814  1.00  0.00    -0.042 A 
ATOM     19  C   UNL     1     -22.412  13.973 -29.347  1.00  0.00     0.007 A 
ATOM     20  C   UNL     1     -22.930  14.603 -30.479  1.00  0.00     0.004 A 
ATOM     21  C   UNL     1     -20.941  13.933 -27.311  1.00  0.00     0.048 C 
BRANCH  18  22
ATOM     22  C   UNL     1     -23.089  16.609 -32.042  1.00  0.00     0.013 C 
ATOM     23  C   UNL     1     -24.620  16.593 -32.059  1.00  0.00     0.012 C 
ATOM     24  C   UNL     1     -22.556  18.039 -32.158  1.00  0.00     0.012 C 
ENDBRANCH  18  22
ENDBRANCH  14  15
ENDBRANCH   1  14
TORSDOF 5
ENDMDL
MODEL 4
REMARK VINA RESULT:    -7.447      4.811      6.878
REMARK INTER + INTRA:         -10.237
REMARK INTER:                  -9.512
REMARK INTRA:                  -0.725
REMARK UNBOUND:                -0.613
REMARK SMILES Cc1ccc(-c2cc(COc3cc(C(C)C)ccc3C)on2)cc1
REMARK SMILES IDX 9 1 8 2 6 3 7 4 22 5 21 6 5 7 2 8 3 9 24 10 4 11 23 12 1 13
REMARK SMILES IDX 10 14 11 15 12 16 19 17 13 18 18 19 17 20 20 21 14 22 15 23
REMARK SMILES IDX 16 24
REMARK H PARENT
ROOT
ATOM      1  C   UNL     1     -22.502  15.264 -31.025  1.00  0.00     0.307 C 
ENDROOT
BRANCH   1   2
ATOM      2  C   UNL     1     -22.341  14.942 -29.588  1.00  0.00     0.174 A 
ATOM      3  C   UNL     1     -22.012  14.696 -27.405  1.00  0.00     0.114 A 
ATOM      4  C   UNL     1     -21.890  15.618 -28.480  1.00  0.00     0.081 A 
ATOM      5  N   UNL     1     -22.514  13.534 -27.861  1.00  0.00    -0.079 NA
ATOM      6  O   UNL     1     -22.716  13.693 -29.215  1.00  0.00    -0.357 OA
BRANCH   3   7
ATOM      7  C   UNL     1     -21.674  14.888 -25.990  1.00  0.00     0.004 A 
ATOM      8  C   UNL     1     -21.016  15.240 -23.259  1.00  0.00    -0.051 A 
ATOM      9  C   UNL     1     -20.264  14.382 -24.065  1.00  0.00     0.004 A 
ATOM     10  C   UNL     1     -22.084  15.938 -23.828  1.00  0.00     0.004 A 
ATOM     11  C   UNL     1     -20.593  14.205 -25.414  1.00  0.00     0.011 A 
ATOM     12  C   UNL     1     -22.414  15.760 -25.178  1.00  0.00     0.011 A 
ATOM     13  C   UNL     1     -20.643  15.457 -21.823  1.00  0.00     0.044 C 
ENDBRANCH   3   7
ENDBRANCH   1   2
BRANCH   1  14
ATOM     14  O   UNL     1     -23.647  16.105 -31.147  1.00  0.00    -0.485 OA
BRANCH  14  15
ATOM     15  C   UNL     1     -23.435  17.429 -31.434  1.00  0.00     0.123 A 
ATOM     16  C   UNL     1     -22.208  18.091 -31.306  1.00  0.00     0.050 A 
ATOM     17  C   UNL     1     -24.561  18.135 -31.888  1.00  0.00    -0.009 A 
ATOM     18  C   UNL     1     -22.081  19.454 -31.625  1.00  0.00    -0.042 A 
ATOM     19  C   UNL     1     -24.438  19.494 -32.206  1.00  0.00     0.007 A 
ATOM     20  C   UNL     1     -23.211  20.146 -32.076  1.00  0.00     0.004 A 
ATOM     21  C   UNL     1     -25.893  17.453 -32.037  1.00  0.00     0.048 C 
BRANCH  18  22
ATOM     22  C   UNL     1     -20.735  20.144 -31.475  1.00  0.00     0.013 C 
ATOM     23  C   UNL     1     -20.316  20.848 -32.768  1.00  0.00     0.012 C 
ATOM     24  C   UNL     1     -20.730  21.120 -30.295  1.00  0.00     0.012 C 
ENDBRANCH  18  22
ENDBRANCH  14  15
ENDBRANCH   1  14
TORSDOF 5
ENDMDL
MODEL 5
REMARK VINA RESULT:    -7.367      4.118      6.106
REMARK INTER + INTRA:         -10.134
REMARK INTER:                  -9.184
REMARK INTRA:                  -0.950
REMARK UNBOUND:                -0.613
REMARK SMILES Cc1ccc(-c2cc(COc3cc(C(C)C)ccc3C)on2)cc1
REMARK SMILES IDX 9 1 8 2 6 3 7 4 22 5 21 6 5 7 2 8 3 9 24 10 4 11 23 12 1 13
REMARK SMILES IDX 10 14 11 15 12 16 19 17 13 18 18 19 17 20 20 21 14 22 15 23
REMARK SMILES IDX 16 24
REMARK H PARENT
ROOT
ATOM      1  C   UNL     1     -19.570  17.597 -27.832  1.00  0.00     0.307 C 
ENDROOT
BRANCH   1   2
ATOM      2  C   UNL     1     -20.291  17.265 -26.581  1.00  0.00     0.174 A 
ATOM      3  C   UNL     1     -21.202  16.580 -24.674  1.00  0.00     0.114 A 
ATOM      4  C   UNL     1     -20.149  16.320 -25.594  1.00  0.00     0.081 A 
ATOM      5  N   UNL     1     -21.927  17.630 -25.103  1.00  0.00    -0.079 NA
ATOM      6  O   UNL     1     -21.357  18.050 -26.285  1.00  0.00    -0.357 OA
BRANCH   3   7
ATOM      7  C   UNL     1     -21.528  15.874 -23.430  1.00  0.00     0.004 A 
ATOM      8  C   UNL     1     -22.154  14.528 -21.020  1.00  0.00    -0.051 A 
ATOM      9  C   UNL     1     -22.649  15.811 -21.265  1.00  0.00     0.004 A 
ATOM     10  C   UNL     1     -21.362  13.912 -21.992  1.00  0.00     0.004 A 
ATOM     11  C   UNL     1     -22.335  16.477 -22.455  1.00  0.00     0.011 A 
ATOM     12  C   UNL     1     -21.048  14.579 -23.182  1.00  0.00     0.011 A 
ATOM     13  C   UNL     1     -22.518  13.800 -19.760  1.00  0.00     0.044 C 
ENDBRANCH   3   7
ENDBRANCH   1   2
BRANCH   1  14
ATOM     14  O   UNL     1     -19.529  16.413 -28.625  1.00  0.00    -0.485 OA
BRANCH  14  15
ATOM     15  C   UNL     1     -20.659  16.078 -29.326  1.00  0.00     0.123 A 
ATOM     16  C   UNL     1     -21.460  16.980 -30.036  1.00  0.00     0.050 A 
ATOM     17  C   UNL     1     -21.001  14.716 -29.302  1.00  0.00    -0.009 A 
ATOM     18  C   UNL     1     -22.604  16.548 -30.729  1.00  0.00    -0.042 A 
ATOM     19  C   UNL     1     -22.140  14.281 -29.991  1.00  0.00     0.007 A 
ATOM     20  C   UNL     1     -22.933  15.188 -30.697  1.00  0.00     0.004 A 
ATOM     21  C   UNL     1     -20.161  13.721 -28.549  1.00  0.00     0.048 C 
BRANCH  18  22
ATOM     22  C   UNL     1     -23.453  17.553 -31.490  1.00  0.00     0.013 C 
ATOM     23  C   UNL     1     -22.661  18.820 -31.824  1.00  0.00     0.012 C 
ATOM     24  C   UNL     1     -24.057  16.937 -32.754  1.00  0.00     0.012 C 
ENDBRANCH  18  22
ENDBRANCH  14  15
ENDBRANCH   1  14
TORSDOF 5
ENDMDL
MODEL 6
REMARK VINA RESULT:    -7.342      1.517      2.792
REMARK INTER + INTRA:         -10.101
REMARK INTER:                  -9.519
REMARK INTRA:                  -0.582
REMARK UNBOUND:                -0.613
REMARK SMILES Cc1ccc(-c2cc(COc3cc(C(C)C)ccc3C)on2)cc1
REMARK SMILES IDX 9 1 8 2 6 3 7 4 22 5 21 6 5 7 2 8 3 9 24 10 4 11 23 12 1 13
REMARK SMILES IDX 10 14 11 15 12 16 19 17 13 18 18 19 17 20 20 21 14 22 15 23
REMARK SMILES IDX 16 24
REMARK H PARENT
ROOT
ATOM      1  C   UNL     1     -19.269  18.367 -27.694  1.00  0.00     0.307 C 
ENDROOT
BRANCH   1   2
ATOM      2  C   UNL     1     -18.959  19.594 -26.924  1.00  0.00     0.174 A 
ATOM      3  C   UNL     1     -18.744  21.452 -25.727  1.00  0.00     0.114 A 
ATOM      4  C   UNL     1     -19.695  20.520 -26.226  1.00  0.00     0.081 A 
ATOM      5  N   UNL     1     -17.508  21.087 -26.113  1.00  0.00    -0.079 NA
ATOM      6  O   UNL     1     -17.648  19.935 -26.855  1.00  0.00    -0.357 OA
BRANCH   3   7
ATOM      7  C   UNL     1     -18.976  22.650 -24.911  1.00  0.00     0.004 A 
ATOM      8  C   UNL     1     -19.443  24.958 -23.339  1.00  0.00    -0.051 A 
ATOM      9  C   UNL     1     -20.306  23.861 -23.264  1.00  0.00     0.004 A 
ATOM     10  C   UNL     1     -18.334  24.888 -24.187  1.00  0.00     0.004 A 
ATOM     11  C   UNL     1     -20.077  22.724 -24.045  1.00  0.00     0.011 A 
ATOM     12  C   UNL     1     -18.106  23.749 -24.968  1.00  0.00     0.011 A 
ATOM     13  C   UNL     1     -19.669  26.164 -22.478  1.00  0.00     0.044 C 
ENDBRANCH   3   7
ENDBRANCH   1   2
BRANCH   1  14
ATOM     14  O   UNL     1     -20.516  17.868 -27.215  1.00  0.00    -0.485 OA
BRANCH  14  15
ATOM     15  C   UNL     1     -20.735  16.517 -27.301  1.00  0.00     0.123 A 
ATOM     16  C   UNL     1     -21.174  15.847 -28.450  1.00  0.00     0.050 A 
ATOM     17  C   UNL     1     -20.487  15.790 -26.125  1.00  0.00    -0.009 A 
ATOM     18  C   UNL     1     -21.372  14.456 -28.449  1.00  0.00    -0.042 A 
ATOM     19  C   UNL     1     -20.683  14.403 -26.121  1.00  0.00     0.007 A 
ATOM     20  C   UNL     1     -21.120  13.743 -27.270  1.00  0.00     0.004 A 
ATOM     21  C   UNL     1     -20.013  16.480 -24.876  1.00  0.00     0.048 C 
BRANCH  18  22
ATOM     22  C   UNL     1     -21.850  13.758 -29.712  1.00  0.00     0.013 C 
ATOM     23  C   UNL     1     -22.537  12.428 -29.394  1.00  0.00     0.012 C 
ATOM     24  C   UNL     1     -22.765  14.662 -30.542  1.00  0.00     0.012 C 
ENDBRANCH  18  22
ENDBRANCH  14  15
ENDBRANCH   1  14
TORSDOF 5
ENDMDL
MODEL 7
REMARK VINA RESULT:    -7.307      1.678      8.842
REMARK INTER + INTRA:         -10.057
REMARK INTER:                  -9.491
REMARK INTRA:                  -0.566
REMARK UNBOUND:                -0.613
REMARK SMILES Cc1ccc(-c2cc(COc3cc(C(C)C)ccc3C)on2)cc1
REMARK SMILES IDX 9 1 8 2 6 3 7 4 22 5 21 6 5 7 2 8 3 9 24 10 4 11 23 12 1 13
REMARK SMILES IDX 10 14 11 15 12 16 19 17 13 18 18 19 17 20 20 21 14 22 15 23
REMARK SMILES IDX 16 24
REMARK H PARENT
ROOT
ATOM      1  C   UNL     1     -18.376  20.323 -27.311  1.00  0.00     0.307 C 
ENDROOT
BRANCH   1   2
ATOM      2  C   UNL     1     -19.032  18.995 -27.276  1.00  0.00     0.174 A 
ATOM      3  C   UNL     1     -20.027  17.019 -27.475  1.00  0.00     0.114 A 
ATOM      4  C   UNL     1     -19.534  18.128 -28.216  1.00  0.00     0.081 A 
ATOM      5  N   UNL     1     -19.821  17.226 -26.162  1.00  0.00    -0.079 NA
ATOM      6  O   UNL     1     -19.204  18.452 -26.044  1.00  0.00    -0.357 OA
BRANCH   3   7
ATOM      7  C   UNL     1     -20.671  15.798 -27.974  1.00  0.00     0.004 A 
ATOM      8  C   UNL     1     -21.931  13.450 -28.929  1.00  0.00    -0.051 A 
ATOM      9  C   UNL     1     -22.554  14.694 -29.060  1.00  0.00     0.004 A 
ATOM     10  C   UNL     1     -20.667  13.388 -28.338  1.00  0.00     0.004 A 
ATOM     11  C   UNL     1     -21.933  15.853 -28.583  1.00  0.00     0.011 A 
ATOM     12  C   UNL     1     -20.045  14.548 -27.860  1.00  0.00     0.011 A 
ATOM     13  C   UNL     1     -22.581  12.212 -29.471  1.00  0.00     0.044 C 
ENDBRANCH   3   7
ENDBRANCH   1   2
BRANCH   1  14
ATOM     14  O   UNL     1     -17.873  20.583 -26.002  1.00  0.00    -0.485 OA
BRANCH  14  15
ATOM     15  C   UNL     1     -18.360  21.681 -25.342  1.00  0.00     0.123 A 
ATOM     16  C   UNL     1     -19.579  21.729 -24.654  1.00  0.00     0.050 A 
ATOM     17  C   UNL     1     -17.542  22.822 -25.384  1.00  0.00    -0.009 A 
ATOM     18  C   UNL     1     -20.001  22.901 -24.003  1.00  0.00    -0.042 A 
ATOM     19  C   UNL     1     -17.959  23.992 -24.735  1.00  0.00     0.007 A 
ATOM     20  C   UNL     1     -19.176  24.030 -24.052  1.00  0.00     0.004 A 
ATOM     21  C   UNL     1     -16.227  22.803 -26.113  1.00  0.00     0.048 C 
BRANCH  18  22
ATOM     22  C   UNL     1     -21.330  22.920 -23.265  1.00  0.00     0.013 C 
ATOM     23  C   UNL     1     -22.410  22.151 -24.031  1.00  0.00     0.012 C 
ATOM     24  C   UNL     1     -21.189  22.388 -21.837  1.00  0.00     0.012 C 
ENDBRANCH  18  22
ENDBRANCH  14  15
ENDBRANCH   1  14
TORSDOF 5
ENDMDL
MODEL 8
REMARK VINA RESULT:    -7.213      4.602      5.964
REMARK INTER + INTRA:          -9.934
REMARK INTER:                  -9.070
REMARK INTRA:                  -0.865
REMARK UNBOUND:                -0.613
REMARK SMILES Cc1ccc(-c2cc(COc3cc(C(C)C)ccc3C)on2)cc1
REMARK SMILES IDX 9 1 8 2 6 3 7 4 22 5 21 6 5 7 2 8 3 9 24 10 4 11 23 12 1 13
REMARK SMILES IDX 10 14 11 15 12 16 19 17 13 18 18 19 17 20 20 21 14 22 15 23
REMARK SMILES IDX 16 24
REMARK H PARENT
ROOT
ATOM      1  C   UNL     1     -22.515  13.908 -28.749  1.00  0.00     0.307 C 
ENDROOT
BRANCH   1   2
ATOM      2  C   UNL     1     -22.142  14.303 -27.371  1.00  0.00     0.174 A 
ATOM      3  C   UNL     1     -21.785  15.047 -25.309  1.00  0.00     0.114 A 
ATOM      4  C   UNL     1     -22.655  15.160 -26.428  1.00  0.00     0.081 A 
ATOM      5  N   UNL     1     -20.809  14.162 -25.583  1.00  0.00    -0.079 NA
ATOM      6  O   UNL     1     -21.036  13.705 -26.863  1.00  0.00    -0.357 OA
BRANCH   3   7
ATOM      7  C   UNL     1     -21.859  15.740 -24.017  1.00  0.00     0.004 A 
ATOM      8  C   UNL     1     -22.003  17.060 -21.517  1.00  0.00    -0.051 A 
ATOM      9  C   UNL     1     -21.388  15.810 -21.625  1.00  0.00     0.004 A 
ATOM     10  C   UNL     1     -22.526  17.657 -22.667  1.00  0.00     0.004 A 
ATOM     11  C   UNL     1     -21.322  15.156 -22.860  1.00  0.00     0.011 A 
ATOM     12  C   UNL     1     -22.460  17.002 -23.903  1.00  0.00     0.011 A 
ATOM     13  C   UNL     1     -22.045  17.776 -20.200  1.00  0.00     0.044 C 
ENDBRANCH   3   7
ENDBRANCH   1   2
BRANCH   1  14
ATOM     14  O   UNL     1     -21.571  14.509 -29.633  1.00  0.00    -0.485 OA
BRANCH  14  15
ATOM     15  C   UNL     1     -21.867  15.753 -30.128  1.00  0.00     0.123 A 
ATOM     16  C   UNL     1     -22.925  16.039 -31.001  1.00  0.00     0.050 A 
ATOM     17  C   UNL     1     -21.020  16.789 -29.701  1.00  0.00    -0.009 A 
ATOM     18  C   UNL     1     -23.156  17.348 -31.458  1.00  0.00    -0.042 A 
ATOM     19  C   UNL     1     -21.248  18.095 -30.155  1.00  0.00     0.007 A 
ATOM     20  C   UNL     1     -22.304  18.371 -31.024  1.00  0.00     0.004 A 
ATOM     21  C   UNL     1     -19.876  16.515 -28.764  1.00  0.00     0.048 C 
BRANCH  18  22
ATOM     22  C   UNL     1     -24.312  17.625 -32.405  1.00  0.00     0.013 C 
ATOM     23  C   UNL     1     -25.481  16.667 -32.161  1.00  0.00     0.012 C 
ATOM     24  C   UNL     1     -24.772  19.082 -32.320  1.00  0.00     0.012 C 
ENDBRANCH  18  22
ENDBRANCH  14  15
ENDBRANCH   1  14
TORSDOF 5
ENDMDL
