MODEL 1
REMARK VINA RESULT:    -7.464      0.000      0.000
REMARK INTER + INTRA:         -10.234
REMARK INTER:                  -9.646
REMARK INTRA:                  -0.589
REMARK UNBOUND:                -0.589
REMARK SMILES Cc1ccc(C(C)C)cc1OCc1cc(-c2ccccc2)no1
REMARK SMILES IDX 11 1 10 2 2 3 3 4 4 5 9 6 5 7 1 8 6 9 7 10 8 11 12 12 13 13
REMARK SMILES IDX 14 14 23 15 15 16 22 17 16 18 17 19 21 20 18 21 20 22 19 23
REMARK H PARENT
ROOT
ATOM      1  O   UNL     1     -20.244  18.411 -29.160  1.00  0.00    -0.485 OA
ENDROOT
BRANCH   1   2
ATOM      2  C   UNL     1     -20.948  17.321 -29.604  1.00  0.00     0.123 A 
ATOM      3  C   UNL     1     -21.912  17.580 -30.593  1.00  0.00    -0.009 A 
ATOM      4  C   UNL     1     -22.663  16.518 -31.115  1.00  0.00     0.007 A 
ATOM      5  C   UNL     1     -22.453  15.213 -30.669  1.00  0.00     0.004 A 
ATOM      6  C   UNL     1     -20.736  16.006 -29.173  1.00  0.00     0.050 A 
ATOM      7  C   UNL     1     -21.486  14.939 -29.696  1.00  0.00    -0.042 A 
ATOM      8  C   UNL     1     -22.148  18.978 -31.094  1.00  0.00     0.048 C 
BRANCH   7   9
ATOM      9  C   UNL     1     -21.260  13.508 -29.238  1.00  0.00     0.013 C 
ATOM     10  C   UNL     1     -20.620  13.458 -27.848  1.00  0.00     0.012 C 
ATOM     11  C   UNL     1     -22.555  12.693 -29.274  1.00  0.00     0.012 C 
ENDBRANCH   7   9
ENDBRANCH   1   2
BRANCH   1  12
ATOM     12  C   UNL     1     -19.110  18.189 -28.317  1.00  0.00     0.307 C 
BRANCH  12  13
ATOM     13  C   UNL     1     -19.145  19.145 -27.189  1.00  0.00     0.174 A 
ATOM     14  C   UNL     1     -19.208  20.512 -27.073  1.00  0.00     0.081 A 
ATOM     15  O   UNL     1     -19.105  18.601 -25.946  1.00  0.00    -0.357 OA
ATOM     16  C   UNL     1     -19.191  20.769 -25.676  1.00  0.00     0.114 A 
ATOM     17  N   UNL     1     -19.134  19.605 -25.003  1.00  0.00    -0.079 NA
BRANCH  16  18
ATOM     18  C   UNL     1     -19.228  22.061 -24.984  1.00  0.00     0.004 A 
ATOM     19  C   UNL     1     -18.208  23.008 -25.183  1.00  0.00     0.010 A 
ATOM     20  C   UNL     1     -20.276  22.388 -24.111  1.00  0.00     0.010 A 
ATOM     21  C   UNL     1     -18.236  24.242 -24.527  1.00  0.00     0.001 A 
ATOM     22  C   UNL     1     -20.303  23.623 -23.455  1.00  0.00     0.001 A 
ATOM     23  C   UNL     1     -19.283  24.548 -23.662  1.00  0.00     0.000 A 
ENDBRANCH  16  18
ENDBRANCH  12  13
ENDBRANCH   1  12
TORSDOF 5
ENDMDL
MODEL 2
REMARK VINA RESULT:    -7.427      2.064      2.657
REMARK INTER + INTRA:         -10.187
REMARK INTER:                  -9.707
REMARK INTRA:                  -0.480
REMARK UNBOUND:                -0.589
REMARK SMILES Cc1ccc(C(C)C)cc1OCc1cc(-c2ccccc2)no1
REMARK SMILES IDX 11 1 10 2 2 3 3 4 4 5 9 6 5 7 1 8 6 9 7 10 8 11 12 12 13 13
REMARK SMILES IDX 14 14 23 15 15 16 22 17 16 18 17 19 21 20 18 21 20 22 19 23
REMARK H PARENT
ROOT
ATOM      1  O   UNL     1     -21.418  18.167 -30.460  1.00  0.00    -0.485 OA
ENDROOT
BRANCH   1   2
ATOM      2  C   UNL     1     -21.694  16.843 -30.230  1.00  0.00     0.123 A 
ATOM      3  C   UNL     1     -22.730  16.294 -31.004  1.00  0.00    -0.009 A 
ATOM      4  C   UNL     1     -23.064  14.942 -30.844  1.00  0.00     0.007 A 
ATOM      5  C   UNL     1     -22.371  14.142 -29.935  1.00  0.00     0.004 A 
ATOM      6  C   UNL     1     -20.996  16.029 -29.330  1.00  0.00     0.050 A 
ATOM      7  C   UNL     1     -21.326  14.672 -29.170  1.00  0.00    -0.042 A 
ATOM      8  C   UNL     1     -23.484  17.137 -31.994  1.00  0.00     0.048 C 
BRANCH   7   9
ATOM      9  C   UNL     1     -20.572  13.779 -28.200  1.00  0.00     0.013 C 
ATOM     10  C   UNL     1     -19.067  13.789 -28.483  1.00  0.00     0.012 C 
ATOM     11  C   UNL     1     -20.857  14.158 -26.745  1.00  0.00     0.012 C 
ENDBRANCH   7   9
ENDBRANCH   1   2
BRANCH   1  12
ATOM     12  C   UNL     1     -22.043  19.146 -29.624  1.00  0.00     0.307 C 
BRANCH  12  13
ATOM     13  C   UNL     1     -21.013  20.072 -29.104  1.00  0.00     0.174 A 
ATOM     14  C   UNL     1     -20.251  20.139 -27.963  1.00  0.00     0.081 A 
ATOM     15  O   UNL     1     -20.708  21.130 -29.897  1.00  0.00    -0.357 OA
ATOM     16  C   UNL     1     -19.469  21.316 -28.105  1.00  0.00     0.114 A 
ATOM     17  N   UNL     1     -19.749  21.905 -29.282  1.00  0.00    -0.079 NA
BRANCH  16  18
ATOM     18  C   UNL     1     -18.485  21.878 -27.174  1.00  0.00     0.004 A 
ATOM     19  C   UNL     1     -17.109  21.718 -27.406  1.00  0.00     0.010 A 
ATOM     20  C   UNL     1     -18.889  22.587 -26.033  1.00  0.00     0.010 A 
ATOM     21  C   UNL     1     -16.165  22.250 -26.522  1.00  0.00     0.001 A 
ATOM     22  C   UNL     1     -17.944  23.119 -25.149  1.00  0.00     0.001 A 
ATOM     23  C   UNL     1     -16.584  22.949 -25.393  1.00  0.00     0.000 A 
ENDBRANCH  16  18
ENDBRANCH  12  13
ENDBRANCH   1  12
TORSDOF 5
ENDMDL
MODEL 3
REMARK VINA RESULT:    -7.359      1.552      3.828
REMARK INTER + INTRA:         -10.099
REMARK INTER:                  -9.412
REMARK INTRA:                  -0.687
REMARK UNBOUND:                -0.589
REMARK SMILES Cc1ccc(C(C)C)cc1OCc1cc(-c2ccccc2)no1
REMARK SMILES IDX 11 1 10 2 2 3 3 4 4 5 9 6 5 7 1 8 6 9 7 10 8 11 12 12 13 13
REMARK SMILES IDX 14 14 23 15 15 16 22 17 16 18 17 19 21 20 18 21 20 22 19 23
REMARK H PARENT
ROOT
ATOM      1  O   UNL     1     -21.436  16.505 -28.617  1.00  0.00    -0.485 OA
ENDROOT
BRANCH   1   2
ATOM      2  C   UNL     1     -21.771  16.977 -29.861  1.00  0.00     0.123 A 
ATOM      3  C   UNL     1     -22.451  16.072 -30.693  1.00  0.00    -0.009 A 
ATOM      4  C   UNL     1     -22.846  16.481 -31.974  1.00  0.00     0.007 A 
ATOM      5  C   UNL     1     -22.578  17.776 -32.420  1.00  0.00     0.004 A 
ATOM      6  C   UNL     1     -21.519  18.277 -30.313  1.00  0.00     0.050 A 
ATOM      7  C   UNL     1     -21.916  18.692 -31.596  1.00  0.00    -0.042 A 
ATOM      8  C   UNL     1     -22.756  14.675 -30.228  1.00  0.00     0.048 C 
BRANCH   7   9
ATOM      9  C   UNL     1     -21.652  20.102 -32.094  1.00  0.00     0.013 C 
ATOM     10  C   UNL     1     -21.660  21.114 -30.944  1.00  0.00     0.012 C 
ATOM     11  C   UNL     1     -20.346  20.186 -32.886  1.00  0.00     0.012 C 
ENDBRANCH   7   9
ENDBRANCH   1   2
BRANCH   1  12
ATOM     12  C   UNL     1     -20.049  16.370 -28.293  1.00  0.00     0.307 C 
BRANCH  12  13
ATOM     13  C   UNL     1     -19.625  17.528 -27.476  1.00  0.00     0.174 A 
ATOM     14  C   UNL     1     -19.053  18.749 -27.740  1.00  0.00     0.081 A 
ATOM     15  O   UNL     1     -19.816  17.415 -26.137  1.00  0.00    -0.357 OA
ATOM     16  C   UNL     1     -18.897  19.370 -26.472  1.00  0.00     0.114 A 
ATOM     17  N   UNL     1     -19.367  18.556 -25.509  1.00  0.00    -0.079 NA
BRANCH  16  18
ATOM     18  C   UNL     1     -18.327  20.686 -26.163  1.00  0.00     0.004 A 
ATOM     19  C   UNL     1     -18.998  21.570 -25.300  1.00  0.00     0.010 A 
ATOM     20  C   UNL     1     -17.104  21.095 -26.714  1.00  0.00     0.010 A 
ATOM     21  C   UNL     1     -18.462  22.825 -25.002  1.00  0.00     0.001 A 
ATOM     22  C   UNL     1     -16.568  22.352 -26.415  1.00  0.00     0.001 A 
ATOM     23  C   UNL     1     -17.248  23.216 -25.560  1.00  0.00     0.000 A 
ENDBRANCH  16  18
ENDBRANCH  12  13
ENDBRANCH   1  12
TORSDOF 5
ENDMDL
MODEL 4
REMARK VINA RESULT:    -7.356      2.483      3.903
REMARK INTER + INTRA:         -10.095
REMARK INTER:                  -9.202
REMARK INTRA:                  -0.893
REMARK UNBOUND:                -0.589
REMARK SMILES Cc1ccc(C(C)C)cc1OCc1cc(-c2ccccc2)no1
REMARK SMILES IDX 11 1 10 2 2 3 3 4 4 5 9 6 5 7 1 8 6 9 7 10 8 11 12 12 13 13
REMARK SMILES IDX 14 14 23 15 15 16 22 17 16 18 17 19 21 20 18 21 20 22 19 23
REMARK H PARENT
ROOT
ATOM      1  O   UNL     1     -23.129  16.768 -25.324  1.00  0.00    -0.485 OA
ENDROOT
BRANCH   1   2
ATOM      2  C   UNL     1     -22.344  15.817 -25.924  1.00  0.00     0.123 A 
ATOM      3  C   UNL     1     -21.382  15.211 -25.098  1.00  0.00    -0.009 A 
ATOM      4  C   UNL     1     -20.550  14.216 -25.628  1.00  0.00     0.007 A 
ATOM      5  C   UNL     1     -20.678  13.818 -26.959  1.00  0.00     0.004 A 
ATOM      6  C   UNL     1     -22.473  15.402 -27.254  1.00  0.00     0.050 A 
ATOM      7  C   UNL     1     -21.643  14.401 -27.788  1.00  0.00    -0.042 A 
ATOM      8  C   UNL     1     -21.233  15.620 -23.659  1.00  0.00     0.048 C 
BRANCH   7   9
ATOM      9  C   UNL     1     -21.778  13.940 -29.229  1.00  0.00     0.013 C 
ATOM     10  C   UNL     1     -22.517  12.601 -29.323  1.00  0.00     0.012 C 
ATOM     11  C   UNL     1     -22.456  15.000 -30.100  1.00  0.00     0.012 C 
ENDBRANCH   7   9
ENDBRANCH   1   2
BRANCH   1  12
ATOM     12  C   UNL     1     -23.254  18.044 -25.959  1.00  0.00     0.307 C 
BRANCH  12  13
ATOM     13  C   UNL     1     -22.043  18.848 -25.681  1.00  0.00     0.174 A 
ATOM     14  C   UNL     1     -21.138  19.540 -26.447  1.00  0.00     0.081 A 
ATOM     15  O   UNL     1     -21.689  18.961 -24.376  1.00  0.00    -0.357 OA
ATOM     16  C   UNL     1     -20.199  20.075 -25.524  1.00  0.00     0.114 A 
ATOM     17  N   UNL     1     -20.545  19.722 -24.273  1.00  0.00    -0.079 NA
BRANCH  16  18
ATOM     18  C   UNL     1     -19.013  20.892 -25.798  1.00  0.00     0.004 A 
ATOM     19  C   UNL     1     -18.834  22.129 -25.155  1.00  0.00     0.010 A 
ATOM     20  C   UNL     1     -18.029  20.464 -26.701  1.00  0.00     0.010 A 
ATOM     21  C   UNL     1     -17.706  22.914 -25.411  1.00  0.00     0.001 A 
ATOM     22  C   UNL     1     -16.901  21.250 -26.957  1.00  0.00     0.001 A 
ATOM     23  C   UNL     1     -16.741  22.475 -26.313  1.00  0.00     0.000 A 
ENDBRANCH  16  18
ENDBRANCH  12  13
ENDBRANCH   1  12
TORSDOF 5
ENDMDL
MODEL 5
REMARK VINA RESULT:    -7.255      3.836      5.665
REMARK INTER + INTRA:          -9.964
REMARK INTER:                  -9.038
REMARK INTRA:                  -0.926
REMARK UNBOUND:                -0.589
REMARK SMILES Cc1ccc(C(C)C)cc1OCc1cc(-c2ccccc2)no1
REMARK SMILES IDX 11 1 10 2 2 3 3 4 4 5 9 6 5 7 1 8 6 9 7 10 8 11 12 12 13 13
REMARK SMILES IDX 14 14 23 15 15 16 22 17 16 18 17 19 21 20 18 21 20 22 19 23
REMARK H PARENT
ROOT
ATOM      1  O   UNL     1     -19.523  16.520 -28.818  1.00  0.00    -0.485 OA
ENDROOT
BRANCH   1   2
ATOM      2  C   UNL     1     -20.642  15.973 -29.393  1.00  0.00     0.123 A 
ATOM      3  C   UNL     1     -20.812  14.592 -29.199  1.00  0.00    -0.009 A 
ATOM      4  C   UNL     1     -21.939  13.957 -29.739  1.00  0.00     0.007 A 
ATOM      5  C   UNL     1     -22.891  14.685 -30.453  1.00  0.00     0.004 A 
ATOM      6  C   UNL     1     -21.609  16.697 -30.099  1.00  0.00     0.050 A 
ATOM      7  C   UNL     1     -22.742  16.063 -30.639  1.00  0.00    -0.042 A 
ATOM      8  C   UNL     1     -19.802  13.790 -28.427  1.00  0.00     0.048 C 
BRANCH   7   9
ATOM      9  C   UNL     1     -23.800  16.841 -31.403  1.00  0.00     0.013 C 
ATOM     10  C   UNL     1     -24.020  18.231 -30.799  1.00  0.00     0.012 C 
ATOM     11  C   UNL     1     -23.464  16.939 -32.892  1.00  0.00     0.012 C 
ENDBRANCH   7   9
ENDBRANCH   1   2
BRANCH   1  12
ATOM     12  C   UNL     1     -19.688  17.647 -27.952  1.00  0.00     0.307 C 
BRANCH  12  13
ATOM     13  C   UNL     1     -20.339  17.208 -26.698  1.00  0.00     0.174 A 
ATOM     14  C   UNL     1     -20.028  16.320 -25.698  1.00  0.00     0.081 A 
ATOM     15  O   UNL     1     -21.537  17.782 -26.416  1.00  0.00    -0.357 OA
ATOM     16  C   UNL     1     -21.120  16.380 -24.792  1.00  0.00     0.114 A 
ATOM     17  N   UNL     1     -22.025  17.272 -25.233  1.00  0.00    -0.079 NA
BRANCH  16  18
ATOM     18  C   UNL     1     -21.317  15.628 -23.548  1.00  0.00     0.004 A 
ATOM     19  C   UNL     1     -20.703  14.377 -23.364  1.00  0.00     0.010 A 
ATOM     20  C   UNL     1     -22.116  16.136 -22.512  1.00  0.00     0.010 A 
ATOM     21  C   UNL     1     -20.887  13.655 -22.181  1.00  0.00     0.001 A 
ATOM     22  C   UNL     1     -22.299  15.412 -21.329  1.00  0.00     0.001 A 
ATOM     23  C   UNL     1     -21.686  14.173 -21.165  1.00  0.00     0.000 A 
ENDBRANCH  16  18
ENDBRANCH  12  13
ENDBRANCH   1  12
TORSDOF 5
ENDMDL
MODEL 6
REMARK VINA RESULT:    -7.219      4.614      6.143
REMARK INTER + INTRA:          -9.917
REMARK INTER:                  -9.076
REMARK INTRA:                  -0.841
REMARK UNBOUND:                -0.589
REMARK SMILES Cc1ccc(C(C)C)cc1OCc1cc(-c2ccccc2)no1
REMARK SMILES IDX 11 1 10 2 2 3 3 4 4 5 9 6 5 7 1 8 6 9 7 10 8 11 12 12 13 13
REMARK SMILES IDX 14 14 23 15 15 16 22 17 16 18 17 19 21 20 18 21 20 22 19 23
REMARK H PARENT
ROOT
ATOM      1  O   UNL     1     -21.453  14.759 -29.911  1.00  0.00    -0.485 OA
ENDROOT
BRANCH   1   2
ATOM      2  C   UNL     1     -21.879  16.016 -30.258  1.00  0.00     0.123 A 
ATOM      3  C   UNL     1     -21.102  17.079 -29.766  1.00  0.00    -0.009 A 
ATOM      4  C   UNL     1     -21.458  18.396 -30.089  1.00  0.00     0.007 A 
ATOM      5  C   UNL     1     -22.563  18.655 -30.899  1.00  0.00     0.004 A 
ATOM      6  C   UNL     1     -22.978  16.286 -31.081  1.00  0.00     0.050 A 
ATOM      7  C   UNL     1     -23.335  17.605 -31.410  1.00  0.00    -0.042 A 
ATOM      8  C   UNL     1     -19.903  16.821 -28.897  1.00  0.00     0.048 C 
BRANCH   7   9
ATOM      9  C   UNL     1     -24.523  17.908 -32.306  1.00  0.00     0.013 C 
ATOM     10  C   UNL     1     -25.595  16.818 -32.206  1.00  0.00     0.012 C 
ATOM     11  C   UNL     1     -25.117  19.287 -32.010  1.00  0.00     0.012 C 
ENDBRANCH   7   9
ENDBRANCH   1   2
BRANCH   1  12
ATOM     12  C   UNL     1     -22.281  13.979 -29.043  1.00  0.00     0.307 C 
BRANCH  12  13
ATOM     13  C   UNL     1     -21.827  14.156 -27.647  1.00  0.00     0.174 A 
ATOM     14  C   UNL     1     -22.354  14.732 -26.517  1.00  0.00     0.081 A 
ATOM     15  O   UNL     1     -20.601  13.655 -27.350  1.00  0.00    -0.357 OA
ATOM     16  C   UNL     1     -21.365  14.560 -25.513  1.00  0.00     0.114 A 
ATOM     17  N   UNL     1     -20.309  13.902 -26.026  1.00  0.00    -0.079 NA
BRANCH  16  18
ATOM     18  C   UNL     1     -21.398  14.995 -24.113  1.00  0.00     0.004 A 
ATOM     19  C   UNL     1     -20.680  14.294 -23.129  1.00  0.00     0.010 A 
ATOM     20  C   UNL     1     -22.142  16.117 -23.718  1.00  0.00     0.010 A 
ATOM     21  C   UNL     1     -20.708  14.701 -21.793  1.00  0.00     0.001 A 
ATOM     22  C   UNL     1     -22.171  16.524 -22.381  1.00  0.00     0.001 A 
ATOM     23  C   UNL     1     -21.454  15.815 -21.419  1.00  0.00     0.000 A 
ENDBRANCH  16  18
ENDBRANCH  12  13
ENDBRANCH   1  12
TORSDOF 5
ENDMDL
MODEL 7
REMARK VINA RESULT:    -7.196      1.659      3.462
REMARK INTER + INTRA:          -9.889
REMARK INTER:                  -9.191
REMARK INTRA:                  -0.697
REMARK UNBOUND:                -0.589
REMARK SMILES Cc1ccc(C(C)C)cc1OCc1cc(-c2ccccc2)no1
REMARK SMILES IDX 11 1 10 2 2 3 3 4 4 5 9 6 5 7 1 8 6 9 7 10 8 11 12 12 13 13
REMARK SMILES IDX 14 14 23 15 15 16 22 17 16 18 17 19 21 20 18 21 20 22 19 23
REMARK H PARENT
ROOT
ATOM      1  O   UNL     1     -21.744  16.131 -27.223  1.00  0.00    -0.485 OA
ENDROOT
BRANCH   1   2
ATOM      2  C   UNL     1     -22.068  15.951 -28.544  1.00  0.00     0.123 A 
ATOM      3  C   UNL     1     -22.464  14.652 -28.902  1.00  0.00    -0.009 A 
ATOM      4  C   UNL     1     -22.828  14.387 -30.229  1.00  0.00     0.007 A 
ATOM      5  C   UNL     1     -22.811  15.401 -31.187  1.00  0.00     0.004 A 
ATOM      6  C   UNL     1     -22.066  16.965 -29.509  1.00  0.00     0.050 A 
ATOM      7  C   UNL     1     -22.435  16.703 -30.840  1.00  0.00    -0.042 A 
ATOM      8  C   UNL     1     -22.496  13.546 -27.884  1.00  0.00     0.048 C 
BRANCH   7   9
ATOM      9  C   UNL     1     -22.441  17.797 -31.894  1.00  0.00     0.013 C 
ATOM     10  C   UNL     1     -23.867  18.252 -32.221  1.00  0.00     0.012 C 
ATOM     11  C   UNL     1     -21.570  18.985 -31.480  1.00  0.00     0.012 C 
ENDBRANCH   7   9
ENDBRANCH   1   2
BRANCH   1  12
ATOM     12  C   UNL     1     -22.269  17.277 -26.546  1.00  0.00     0.307 C 
BRANCH  12  13
ATOM     13  C   UNL     1     -21.153  18.166 -26.154  1.00  0.00     0.174 A 
ATOM     14  C   UNL     1     -20.746  19.430 -26.504  1.00  0.00     0.081 A 
ATOM     15  O   UNL     1     -20.288  17.667 -25.235  1.00  0.00    -0.357 OA
ATOM     16  C   UNL     1     -19.568  19.666 -25.748  1.00  0.00     0.114 A 
ATOM     17  N   UNL     1     -19.302  18.595 -24.979  1.00  0.00    -0.079 NA
BRANCH  16  18
ATOM     18  C   UNL     1     -18.711  20.856 -25.738  1.00  0.00     0.004 A 
ATOM     19  C   UNL     1     -17.548  20.906 -26.524  1.00  0.00     0.010 A 
ATOM     20  C   UNL     1     -19.029  21.973 -24.950  1.00  0.00     0.010 A 
ATOM     21  C   UNL     1     -16.726  22.037 -26.520  1.00  0.00     0.001 A 
ATOM     22  C   UNL     1     -18.206  23.104 -24.946  1.00  0.00     0.001 A 
ATOM     23  C   UNL     1     -17.055  23.135 -25.729  1.00  0.00     0.000 A 
ENDBRANCH  16  18
ENDBRANCH  12  13
ENDBRANCH   1  12
TORSDOF 5
ENDMDL
MODEL 8
REMARK VINA RESULT:    -7.182      1.469      1.941
REMARK INTER + INTRA:          -9.870
REMARK INTER:                  -9.240
REMARK INTRA:                  -0.630
REMARK UNBOUND:                -0.589
REMARK SMILES Cc1ccc(C(C)C)cc1OCc1cc(-c2ccccc2)no1
REMARK SMILES IDX 11 1 10 2 2 3 3 4 4 5 9 6 5 7 1 8 6 9 7 10 8 11 12 12 13 13
REMARK SMILES IDX 14 14 23 15 15 16 22 17 16 18 17 19 21 20 18 21 20 22 19 23
REMARK H PARENT
ROOT
ATOM      1  O   UNL     1     -22.631  18.334 -28.596  1.00  0.00    -0.485 OA
ENDROOT
BRANCH   1   2
ATOM      2  C   UNL     1     -22.589  17.226 -29.402  1.00  0.00     0.123 A 
ATOM      3  C   UNL     1     -23.071  17.407 -30.710  1.00  0.00    -0.009 A 
ATOM      4  C   UNL     1     -23.048  16.328 -31.605  1.00  0.00     0.007 A 
ATOM      5  C   UNL     1     -22.542  15.089 -31.211  1.00  0.00     0.004 A 
ATOM      6  C   UNL     1     -22.072  15.983 -29.021  1.00  0.00     0.050 A 
ATOM      7  C   UNL     1     -22.045  14.900 -29.918  1.00  0.00    -0.042 A 
ATOM      8  C   UNL     1     -23.613  18.736 -31.157  1.00  0.00     0.048 C 
BRANCH   7   9
ATOM      9  C   UNL     1     -21.481  13.548 -29.515  1.00  0.00     0.013 C 
ATOM     10  C   UNL     1     -20.644  13.647 -28.236  1.00  0.00     0.012 C 
ATOM     11  C   UNL     1     -22.584  12.498 -29.366  1.00  0.00     0.012 C 
ENDBRANCH   7   9
ENDBRANCH   1   2
BRANCH   1  12
ATOM     12  C   UNL     1     -22.493  18.151 -27.183  1.00  0.00     0.307 C 
BRANCH  12  13
ATOM     13  C   UNL     1     -21.250  18.808 -26.725  1.00  0.00     0.174 A 
ATOM     14  C   UNL     1     -20.735  20.079 -26.802  1.00  0.00     0.081 A 
ATOM     15  O   UNL     1     -20.365  18.017 -26.067  1.00  0.00    -0.357 OA
ATOM     16  C   UNL     1     -19.470  20.009 -26.159  1.00  0.00     0.114 A 
ATOM     17  N   UNL     1     -19.258  18.758 -25.713  1.00  0.00    -0.079 NA
BRANCH  16  18
ATOM     18  C   UNL     1     -18.484  21.077 -25.963  1.00  0.00     0.004 A 
ATOM     19  C   UNL     1     -17.209  20.989 -26.547  1.00  0.00     0.010 A 
ATOM     20  C   UNL     1     -18.786  22.211 -25.194  1.00  0.00     0.010 A 
ATOM     21  C   UNL     1     -16.264  22.002 -26.363  1.00  0.00     0.001 A 
ATOM     22  C   UNL     1     -17.840  23.225 -25.011  1.00  0.00     0.001 A 
ATOM     23  C   UNL     1     -16.579  23.119 -25.594  1.00  0.00     0.000 A 
ENDBRANCH  16  18
ENDBRANCH  12  13
ENDBRANCH   1  12
TORSDOF 5
ENDMDL
