MODEL 1
REMARK VINA RESULT:    -6.975      0.000      0.000
REMARK INTER + INTRA:          -9.635
REMARK INTER:                  -9.014
REMARK INTRA:                  -0.621
REMARK UNBOUND:                -0.621
REMARK SMILES Cc1ccc(-c2cc(COc3cc(C(C)C)ccc3C)on2)cc1
REMARK SMILES IDX 9 1 8 2 6 3 7 4 22 5 21 6 5 7 2 8 3 9 24 10 4 11 23 12 1 13
REMARK SMILES IDX 10 14 11 15 12 16 19 17 13 18 18 19 17 20 20 21 14 22 15 23
REMARK SMILES IDX 16 24
REMARK H PARENT
ROOT
ATOM      1  C   UNL     1       7.506 -29.156  22.095  1.00  0.00     0.307 C 
ENDROOT
BRANCH   1   2
ATOM      2  C   UNL     1       8.740 -28.341  22.172  1.00  0.00     0.174 A 
ATOM      3  C   UNL     1      10.440 -26.921  22.340  1.00  0.00     0.114 A 
ATOM      4  C   UNL     1       9.025 -27.021  22.428  1.00  0.00     0.081 A 
ATOM      5  N   UNL     1      10.961 -28.127  22.048  1.00  0.00    -0.079 NA
ATOM      6  O   UNL     1       9.902 -29.003  21.944  1.00  0.00    -0.357 OA
BRANCH   3   7
ATOM      7  C   UNL     1      11.288 -25.737  22.524  1.00  0.00     0.004 A 
ATOM      8  C   UNL     1      12.932 -23.463  22.894  1.00  0.00    -0.051 A 
ATOM      9  C   UNL     1      13.432 -24.746  23.132  1.00  0.00     0.004 A 
ATOM     10  C   UNL     1      11.614 -23.323  22.451  1.00  0.00     0.004 A 
ATOM     11  C   UNL     1      12.617 -25.869  22.953  1.00  0.00     0.011 A 
ATOM     12  C   UNL     1      10.799 -24.447  22.272  1.00  0.00     0.011 A 
ATOM     13  C   UNL     1      13.815 -22.261  23.053  1.00  0.00     0.044 C 
ENDBRANCH   3   7
ENDBRANCH   1   2
BRANCH   1  14
ATOM     14  O   UNL     1       7.891 -30.523  22.229  1.00  0.00    -0.485 OA
BRANCH  14  15
ATOM     15  C   UNL     1       7.138 -31.317  23.056  1.00  0.00     0.123 A 
ATOM     16  C   UNL     1       7.141 -31.249  24.455  1.00  0.00     0.050 A 
ATOM     17  C   UNL     1       6.316 -32.253  22.407  1.00  0.00    -0.009 A 
ATOM     18  C   UNL     1       6.334 -32.104  25.225  1.00  0.00    -0.042 A 
ATOM     19  C   UNL     1       5.511 -33.107  23.172  1.00  0.00     0.007 A 
ATOM     20  C   UNL     1       5.519 -33.032  24.566  1.00  0.00     0.004 A 
ATOM     21  C   UNL     1       6.290 -32.351  20.907  1.00  0.00     0.048 C 
BRANCH  18  22
ATOM     22  C   UNL     1       6.360 -32.006  26.742  1.00  0.00     0.013 C 
ATOM     23  C   UNL     1       5.643 -33.191  27.395  1.00  0.00     0.012 C 
ATOM     24  C   UNL     1       7.789 -31.870  27.273  1.00  0.00     0.012 C 
ENDBRANCH  18  22
ENDBRANCH  14  15
ENDBRANCH   1  14
TORSDOF 5
ENDMDL
MODEL 2
REMARK VINA RESULT:    -6.942      1.696      8.623
REMARK INTER + INTRA:          -9.592
REMARK INTER:                  -8.918
REMARK INTRA:                  -0.674
REMARK UNBOUND:                -0.621
REMARK SMILES Cc1ccc(-c2cc(COc3cc(C(C)C)ccc3C)on2)cc1
REMARK SMILES IDX 9 1 8 2 6 3 7 4 22 5 21 6 5 7 2 8 3 9 24 10 4 11 23 12 1 13
REMARK SMILES IDX 10 14 11 15 12 16 19 17 13 18 18 19 17 20 20 21 14 22 15 23
REMARK SMILES IDX 16 24
REMARK H PARENT
ROOT
ATOM      1  C   UNL     1       9.116 -27.312  21.726  1.00  0.00     0.307 C 
ENDROOT
BRANCH   1   2
ATOM      2  C   UNL     1       8.651 -28.546  22.400  1.00  0.00     0.174 A 
ATOM      3  C   UNL     1       7.831 -30.246  23.573  1.00  0.00     0.114 A 
ATOM      4  C   UNL     1       7.857 -28.826  23.486  1.00  0.00     0.081 A 
ATOM      5  N   UNL     1       8.575 -30.772  22.582  1.00  0.00    -0.079 NA
ATOM      6  O   UNL     1       9.081 -29.714  21.859  1.00  0.00    -0.357 OA
BRANCH   3   7
ATOM      7  C   UNL     1       7.133 -31.091  24.548  1.00  0.00     0.004 A 
ATOM      8  C   UNL     1       5.804 -32.723  26.441  1.00  0.00    -0.051 A 
ATOM      9  C   UNL     1       6.728 -31.761  26.858  1.00  0.00     0.004 A 
ATOM     10  C   UNL     1       5.532 -32.851  25.077  1.00  0.00     0.004 A 
ATOM     11  C   UNL     1       7.388 -30.958  25.921  1.00  0.00     0.011 A 
ATOM     12  C   UNL     1       6.193 -32.048  24.140  1.00  0.00     0.011 A 
ATOM     13  C   UNL     1       5.072 -33.560  27.447  1.00  0.00     0.044 C 
ENDBRANCH   3   7
ENDBRANCH   1   2
BRANCH   1  14
ATOM     14  O   UNL     1       9.482 -26.383  22.745  1.00  0.00    -0.485 OA
BRANCH  14  15
ATOM     15  C   UNL     1      10.810 -26.065  22.866  1.00  0.00     0.123 A 
ATOM     16  C   UNL     1      11.873 -26.923  22.554  1.00  0.00     0.050 A 
ATOM     17  C   UNL     1      11.079 -24.772  23.343  1.00  0.00    -0.009 A 
ATOM     18  C   UNL     1      13.208 -26.512  22.709  1.00  0.00    -0.042 A 
ATOM     19  C   UNL     1      12.409 -24.359  23.498  1.00  0.00     0.007 A 
ATOM     20  C   UNL     1      13.462 -25.220  23.184  1.00  0.00     0.004 A 
ATOM     21  C   UNL     1       9.961 -23.827  23.686  1.00  0.00     0.048 C 
BRANCH  18  22
ATOM     22  C   UNL     1      14.338 -27.467  22.362  1.00  0.00     0.013 C 
ATOM     23  C   UNL     1      14.364 -28.675  23.302  1.00  0.00     0.012 C 
ATOM     24  C   UNL     1      14.269 -27.914  20.900  1.00  0.00     0.012 C 
ENDBRANCH  18  22
ENDBRANCH  14  15
ENDBRANCH   1  14
TORSDOF 5
ENDMDL
MODEL 3
REMARK VINA RESULT:    -6.939      3.264      8.527
REMARK INTER + INTRA:          -9.588
REMARK INTER:                  -8.772
REMARK INTRA:                  -0.816
REMARK UNBOUND:                -0.621
REMARK SMILES Cc1ccc(-c2cc(COc3cc(C(C)C)ccc3C)on2)cc1
REMARK SMILES IDX 9 1 8 2 6 3 7 4 22 5 21 6 5 7 2 8 3 9 24 10 4 11 23 12 1 13
REMARK SMILES IDX 10 14 11 15 12 16 19 17 13 18 18 19 17 20 20 21 14 22 15 23
REMARK SMILES IDX 16 24
REMARK H PARENT
ROOT
ATOM      1  C   UNL     1       9.446 -26.483  20.886  1.00  0.00     0.307 C 
ENDROOT
BRANCH   1   2
ATOM      2  C   UNL     1       9.035 -27.749  21.536  1.00  0.00     0.174 A 
ATOM      3  C   UNL     1       8.183 -29.593  22.434  1.00  0.00     0.114 A 
ATOM      4  C   UNL     1       7.849 -28.424  21.697  1.00  0.00     0.081 A 
ATOM      5  N   UNL     1       9.504 -29.604  22.690  1.00  0.00    -0.079 NA
ATOM      6  O   UNL     1      10.026 -28.458  22.131  1.00  0.00    -0.357 OA
BRANCH   3   7
ATOM      7  C   UNL     1       7.299 -30.674  22.887  1.00  0.00     0.004 A 
ATOM      8  C   UNL     1       5.605 -32.759  23.778  1.00  0.00    -0.051 A 
ATOM      9  C   UNL     1       6.063 -31.787  24.671  1.00  0.00     0.004 A 
ATOM     10  C   UNL     1       5.980 -32.674  22.435  1.00  0.00     0.004 A 
ATOM     11  C   UNL     1       6.904 -30.759  24.230  1.00  0.00     0.011 A 
ATOM     12  C   UNL     1       6.823 -31.645  21.995  1.00  0.00     0.011 A 
ATOM     13  C   UNL     1       4.676 -33.841  24.243  1.00  0.00     0.044 C 
ENDBRANCH   3   7
ENDBRANCH   1   2
BRANCH   1  14
ATOM     14  O   UNL     1       8.574 -26.272  19.777  1.00  0.00    -0.485 OA
BRANCH  14  15
ATOM     15  C   UNL     1       7.551 -25.374  19.935  1.00  0.00     0.123 A 
ATOM     16  C   UNL     1       7.581 -24.264  20.789  1.00  0.00     0.050 A 
ATOM     17  C   UNL     1       6.404 -25.624  19.164  1.00  0.00    -0.009 A 
ATOM     18  C   UNL     1       6.483 -23.393  20.888  1.00  0.00    -0.042 A 
ATOM     19  C   UNL     1       5.307 -24.758  19.260  1.00  0.00     0.007 A 
ATOM     20  C   UNL     1       5.347 -23.654  20.113  1.00  0.00     0.004 A 
ATOM     21  C   UNL     1       6.339 -26.807  18.237  1.00  0.00     0.048 C 
BRANCH  18  22
ATOM     22  C   UNL     1       6.549 -22.197  21.824  1.00  0.00     0.013 C 
ATOM     23  C   UNL     1       7.867 -21.433  21.671  1.00  0.00     0.012 C 
ATOM     24  C   UNL     1       5.351 -21.264  21.630  1.00  0.00     0.012 C 
ENDBRANCH  18  22
ENDBRANCH  14  15
ENDBRANCH   1  14
TORSDOF 5
ENDMDL
MODEL 4
REMARK VINA RESULT:    -6.898      4.259      6.420
REMARK INTER + INTRA:          -9.535
REMARK INTER:                  -8.818
REMARK INTRA:                  -0.717
REMARK UNBOUND:                -0.621
REMARK SMILES Cc1ccc(-c2cc(COc3cc(C(C)C)ccc3C)on2)cc1
REMARK SMILES IDX 9 1 8 2 6 3 7 4 22 5 21 6 5 7 2 8 3 9 24 10 4 11 23 12 1 13
REMARK SMILES IDX 10 14 11 15 12 16 19 17 13 18 18 19 17 20 20 21 14 22 15 23
REMARK SMILES IDX 16 24
REMARK H PARENT
ROOT
ATOM      1  C   UNL     1       7.190 -26.021  19.111  1.00  0.00     0.307 C 
ENDROOT
BRANCH   1   2
ATOM      2  C   UNL     1       8.367 -25.926  20.006  1.00  0.00     0.174 A 
ATOM      3  C   UNL     1      10.136 -26.036  21.344  1.00  0.00     0.114 A 
ATOM      4  C   UNL     1       9.204 -26.827  20.617  1.00  0.00     0.081 A 
ATOM      5  N   UNL     1       9.858 -24.731  21.165  1.00  0.00    -0.079 NA
ATOM      6  O   UNL     1       8.760 -24.670  20.335  1.00  0.00    -0.357 OA
BRANCH   3   7
ATOM      7  C   UNL     1      11.257 -26.479  22.182  1.00  0.00     0.004 A 
ATOM      8  C   UNL     1      13.407 -27.349  23.804  1.00  0.00    -0.051 A 
ATOM      9  C   UNL     1      12.619 -28.274  23.113  1.00  0.00     0.004 A 
ATOM     10  C   UNL     1      13.129 -25.987  23.664  1.00  0.00     0.004 A 
ATOM     11  C   UNL     1      11.554 -27.843  22.316  1.00  0.00     0.011 A 
ATOM     12  C   UNL     1      12.062 -25.556  22.866  1.00  0.00     0.011 A 
ATOM     13  C   UNL     1      14.571 -27.809  24.631  1.00  0.00     0.044 C 
ENDBRANCH   3   7
ENDBRANCH   1   2
BRANCH   1  14
ATOM     14  O   UNL     1       6.198 -26.786  19.795  1.00  0.00    -0.485 OA
BRANCH  14  15
ATOM     15  C   UNL     1       5.390 -26.126  20.685  1.00  0.00     0.123 A 
ATOM     16  C   UNL     1       4.508 -25.090  20.353  1.00  0.00     0.050 A 
ATOM     17  C   UNL     1       5.486 -26.556  22.018  1.00  0.00    -0.009 A 
ATOM     18  C   UNL     1       3.715 -24.469  21.333  1.00  0.00    -0.042 A 
ATOM     19  C   UNL     1       4.696 -25.940  22.998  1.00  0.00     0.007 A 
ATOM     20  C   UNL     1       3.820 -24.908  22.659  1.00  0.00     0.004 A 
ATOM     21  C   UNL     1       6.422 -27.667  22.407  1.00  0.00     0.048 C 
BRANCH  18  22
ATOM     22  C   UNL     1       2.769 -23.346  20.941  1.00  0.00     0.013 C 
ATOM     23  C   UNL     1       3.530 -22.127  20.414  1.00  0.00     0.012 C 
ATOM     24  C   UNL     1       1.724 -23.819  19.927  1.00  0.00     0.012 C 
ENDBRANCH  18  22
ENDBRANCH  14  15
ENDBRANCH   1  14
TORSDOF 5
ENDMDL
MODEL 5
REMARK VINA RESULT:    -6.889      1.420      8.689
REMARK INTER + INTRA:          -9.523
REMARK INTER:                  -9.078
REMARK INTRA:                  -0.445
REMARK UNBOUND:                -0.621
REMARK SMILES Cc1ccc(-c2cc(COc3cc(C(C)C)ccc3C)on2)cc1
REMARK SMILES IDX 9 1 8 2 6 3 7 4 22 5 21 6 5 7 2 8 3 9 24 10 4 11 23 12 1 13
REMARK SMILES IDX 10 14 11 15 12 16 19 17 13 18 18 19 17 20 20 21 14 22 15 23
REMARK SMILES IDX 16 24
REMARK H PARENT
ROOT
ATOM      1  C   UNL     1       9.214 -26.918  20.891  1.00  0.00     0.307 C 
ENDROOT
BRANCH   1   2
ATOM      2  C   UNL     1       8.786 -28.138  21.613  1.00  0.00     0.174 A 
ATOM      3  C   UNL     1       7.908 -29.907  22.629  1.00  0.00     0.114 A 
ATOM      4  C   UNL     1       7.584 -28.754  21.862  1.00  0.00     0.081 A 
ATOM      5  N   UNL     1       9.239 -29.964  22.819  1.00  0.00    -0.079 NA
ATOM      6  O   UNL     1       9.778 -28.865  22.187  1.00  0.00    -0.357 OA
BRANCH   3   7
ATOM      7  C   UNL     1       7.006 -30.930  23.171  1.00  0.00     0.004 A 
ATOM      8  C   UNL     1       5.255 -32.903  24.199  1.00  0.00    -0.051 A 
ATOM      9  C   UNL     1       5.629 -32.918  22.852  1.00  0.00     0.004 A 
ATOM     10  C   UNL     1       5.777 -31.912  25.034  1.00  0.00     0.004 A 
ATOM     11  C   UNL     1       6.490 -31.939  22.345  1.00  0.00     0.011 A 
ATOM     12  C   UNL     1       6.639 -30.932  24.525  1.00  0.00     0.011 A 
ATOM     13  C   UNL     1       4.359 -33.971  24.752  1.00  0.00     0.044 C 
ENDBRANCH   3   7
ENDBRANCH   1   2
BRANCH   1  14
ATOM     14  O   UNL     1       9.370 -25.883  21.860  1.00  0.00    -0.485 OA
BRANCH  14  15
ATOM     15  C   UNL     1      10.647 -25.487  22.166  1.00  0.00     0.123 A 
ATOM     16  C   UNL     1      11.730 -26.352  22.366  1.00  0.00     0.050 A 
ATOM     17  C   UNL     1      10.837 -24.099  22.275  1.00  0.00    -0.009 A 
ATOM     18  C   UNL     1      13.008 -25.857  22.676  1.00  0.00    -0.042 A 
ATOM     19  C   UNL     1      12.110 -23.603  22.584  1.00  0.00     0.007 A 
ATOM     20  C   UNL     1      13.184 -24.472  22.782  1.00  0.00     0.004 A 
ATOM     21  C   UNL     1       9.695 -23.144  22.065  1.00  0.00     0.048 C 
BRANCH  18  22
ATOM     22  C   UNL     1      14.162 -26.822  22.888  1.00  0.00     0.013 C 
ATOM     23  C   UNL     1      14.166 -27.391  24.310  1.00  0.00     0.012 C 
ATOM     24  C   UNL     1      14.155 -27.947  21.850  1.00  0.00     0.012 C 
ENDBRANCH  18  22
ENDBRANCH  14  15
ENDBRANCH   1  14
TORSDOF 5
ENDMDL
MODEL 6
REMARK VINA RESULT:    -6.866      1.562      8.844
REMARK INTER + INTRA:          -9.493
REMARK INTER:                  -8.875
REMARK INTRA:                  -0.619
REMARK UNBOUND:                -0.621
REMARK SMILES Cc1ccc(-c2cc(COc3cc(C(C)C)ccc3C)on2)cc1
REMARK SMILES IDX 9 1 8 2 6 3 7 4 22 5 21 6 5 7 2 8 3 9 24 10 4 11 23 12 1 13
REMARK SMILES IDX 10 14 11 15 12 16 19 17 13 18 18 19 17 20 20 21 14 22 15 23
REMARK SMILES IDX 16 24
REMARK H PARENT
ROOT
ATOM      1  C   UNL     1       9.693 -27.872  21.895  1.00  0.00     0.307 C 
ENDROOT
BRANCH   1   2
ATOM      2  C   UNL     1       9.006 -29.016  22.540  1.00  0.00     0.174 A 
ATOM      3  C   UNL     1       7.954 -30.582  23.711  1.00  0.00     0.114 A 
ATOM      4  C   UNL     1       8.439 -29.247  23.769  1.00  0.00     0.081 A 
ATOM      5  N   UNL     1       8.223 -31.108  22.501  1.00  0.00    -0.079 NA
ATOM      6  O   UNL     1       8.876 -30.132  21.780  1.00  0.00    -0.357 OA
BRANCH   3   7
ATOM      7  C   UNL     1       7.257 -31.350  24.749  1.00  0.00     0.004 A 
ATOM      8  C   UNL     1       5.930 -32.832  26.763  1.00  0.00    -0.051 A 
ATOM      9  C   UNL     1       6.926 -31.912  27.099  1.00  0.00     0.004 A 
ATOM     10  C   UNL     1       5.586 -32.994  25.419  1.00  0.00     0.004 A 
ATOM     11  C   UNL     1       7.584 -31.183  26.103  1.00  0.00     0.011 A 
ATOM     12  C   UNL     1       6.246 -32.265  24.421  1.00  0.00     0.011 A 
ATOM     13  C   UNL     1       5.200 -33.589  27.833  1.00  0.00     0.044 C 
ENDBRANCH   3   7
ENDBRANCH   1   2
BRANCH   1  14
ATOM     14  O   UNL     1      11.090 -28.022  22.141  1.00  0.00    -0.485 OA
BRANCH  14  15
ATOM     15  C   UNL     1      11.803 -26.894  22.458  1.00  0.00     0.123 A 
ATOM     16  C   UNL     1      11.257 -25.612  22.598  1.00  0.00     0.050 A 
ATOM     17  C   UNL     1      13.181 -27.087  22.649  1.00  0.00    -0.009 A 
ATOM     18  C   UNL     1      12.065 -24.510  22.927  1.00  0.00    -0.042 A 
ATOM     19  C   UNL     1      13.989 -25.990  22.977  1.00  0.00     0.007 A 
ATOM     20  C   UNL     1      13.437 -24.716  23.115  1.00  0.00     0.004 A 
ATOM     21  C   UNL     1      13.798 -28.451  22.507  1.00  0.00     0.048 C 
BRANCH  18  22
ATOM     22  C   UNL     1      11.442 -23.131  23.072  1.00  0.00     0.013 C 
ATOM     23  C   UNL     1      10.271 -23.143  24.059  1.00  0.00     0.012 C 
ATOM     24  C   UNL     1      12.482 -22.082  23.470  1.00  0.00     0.012 C 
ENDBRANCH  18  22
ENDBRANCH  14  15
ENDBRANCH   1  14
TORSDOF 5
ENDMDL
MODEL 7
REMARK VINA RESULT:    -6.816      1.739      3.381
REMARK INTER + INTRA:          -9.429
REMARK INTER:                  -8.680
REMARK INTRA:                  -0.750
REMARK UNBOUND:                -0.621
REMARK SMILES Cc1ccc(-c2cc(COc3cc(C(C)C)ccc3C)on2)cc1
REMARK SMILES IDX 9 1 8 2 6 3 7 4 22 5 21 6 5 7 2 8 3 9 24 10 4 11 23 12 1 13
REMARK SMILES IDX 10 14 11 15 12 16 19 17 13 18 18 19 17 20 20 21 14 22 15 23
REMARK SMILES IDX 16 24
REMARK H PARENT
ROOT
ATOM      1  C   UNL     1       9.426 -27.994  21.326  1.00  0.00     0.307 C 
ENDROOT
BRANCH   1   2
ATOM      2  C   UNL     1       9.896 -26.610  21.565  1.00  0.00     0.174 A 
ATOM      3  C   UNL     1      10.750 -24.632  22.104  1.00  0.00     0.114 A 
ATOM      4  C   UNL     1      10.795 -26.018  22.418  1.00  0.00     0.081 A 
ATOM      5  N   UNL     1       9.866 -24.422  21.111  1.00  0.00    -0.079 NA
ATOM      6  O   UNL     1       9.340 -25.652  20.781  1.00  0.00    -0.357 OA
BRANCH   3   7
ATOM      7  C   UNL     1      11.509 -23.530  22.708  1.00  0.00     0.004 A 
ATOM      8  C   UNL     1      12.987 -21.419  23.879  1.00  0.00    -0.051 A 
ATOM      9  C   UNL     1      13.641 -22.457  23.209  1.00  0.00     0.004 A 
ATOM     10  C   UNL     1      11.591 -21.430  23.942  1.00  0.00     0.004 A 
ATOM     11  C   UNL     1      12.909 -23.502  22.635  1.00  0.00     0.011 A 
ATOM     12  C   UNL     1      10.860 -22.477  23.368  1.00  0.00     0.011 A 
ATOM     13  C   UNL     1      13.768 -20.281  24.464  1.00  0.00     0.044 C 
ENDBRANCH   3   7
ENDBRANCH   1   2
BRANCH   1  14
ATOM     14  O   UNL     1       9.766 -28.764  22.477  1.00  0.00    -0.485 OA
BRANCH  14  15
ATOM     15  C   UNL     1       8.781 -29.532  23.041  1.00  0.00     0.123 A 
ATOM     16  C   UNL     1       8.203 -30.661  22.446  1.00  0.00     0.050 A 
ATOM     17  C   UNL     1       8.348 -29.120  24.313  1.00  0.00    -0.009 A 
ATOM     18  C   UNL     1       7.196 -31.391  23.099  1.00  0.00    -0.042 A 
ATOM     19  C   UNL     1       7.344 -29.846  24.967  1.00  0.00     0.007 A 
ATOM     20  C   UNL     1       6.775 -30.970  24.366  1.00  0.00     0.004 A 
ATOM     21  C   UNL     1       8.949 -27.913  24.979  1.00  0.00     0.048 C 
BRANCH  18  22
ATOM     22  C   UNL     1       6.589 -32.612  22.426  1.00  0.00     0.013 C 
ATOM     23  C   UNL     1       5.293 -33.048  23.115  1.00  0.00     0.012 C 
ATOM     24  C   UNL     1       6.360 -32.375  20.932  1.00  0.00     0.012 C 
ENDBRANCH  18  22
ENDBRANCH  14  15
ENDBRANCH   1  14
TORSDOF 5
ENDMDL
MODEL 8
REMARK VINA RESULT:    -6.774      5.220      7.987
REMARK INTER + INTRA:          -9.376
REMARK INTER:                  -8.513
REMARK INTRA:                  -0.863
REMARK UNBOUND:                -0.621
REMARK SMILES Cc1ccc(-c2cc(COc3cc(C(C)C)ccc3C)on2)cc1
REMARK SMILES IDX 9 1 8 2 6 3 7 4 22 5 21 6 5 7 2 8 3 9 24 10 4 11 23 12 1 13
REMARK SMILES IDX 10 14 11 15 12 16 19 17 13 18 18 19 17 20 20 21 14 22 15 23
REMARK SMILES IDX 16 24
REMARK H PARENT
ROOT
ATOM      1  C   UNL     1      10.954 -22.995  22.434  1.00  0.00     0.307 C 
ENDROOT
BRANCH   1   2
ATOM      2  C   UNL     1       9.674 -23.423  21.822  1.00  0.00     0.174 A 
ATOM      3  C   UNL     1       7.646 -23.883  21.042  1.00  0.00     0.114 A 
ATOM      4  C   UNL     1       8.363 -23.026  21.921  1.00  0.00     0.081 A 
ATOM      5  N   UNL     1       8.498 -24.742  20.454  1.00  0.00    -0.079 NA
ATOM      6  O   UNL     1       9.754 -24.453  20.942  1.00  0.00    -0.357 OA
BRANCH   3   7
ATOM      7  C   UNL     1       6.207 -23.904  20.754  1.00  0.00     0.004 A 
ATOM      8  C   UNL     1       3.435 -23.953  20.181  1.00  0.00    -0.051 A 
ATOM      9  C   UNL     1       4.255 -25.024  19.815  1.00  0.00     0.004 A 
ATOM     10  C   UNL     1       4.003 -22.867  20.854  1.00  0.00     0.004 A 
ATOM     11  C   UNL     1       5.625 -24.996  20.094  1.00  0.00     0.011 A 
ATOM     12  C   UNL     1       5.375 -22.840  21.132  1.00  0.00     0.011 A 
ATOM     13  C   UNL     1       1.960 -23.996  19.913  1.00  0.00     0.044 C 
ENDBRANCH   3   7
ENDBRANCH   1   2
BRANCH   1  14
ATOM     14  O   UNL     1      10.994 -23.533  23.754  1.00  0.00    -0.485 OA
BRANCH  14  15
ATOM     15  C   UNL     1      11.375 -24.842  23.895  1.00  0.00     0.123 A 
ATOM     16  C   UNL     1      12.614 -25.365  23.502  1.00  0.00     0.050 A 
ATOM     17  C   UNL     1      10.420 -25.688  24.483  1.00  0.00    -0.009 A 
ATOM     18  C   UNL     1      12.921 -26.723  23.686  1.00  0.00    -0.042 A 
ATOM     19  C   UNL     1      10.723 -27.043  24.668  1.00  0.00     0.007 A 
ATOM     20  C   UNL     1      11.960 -27.555  24.274  1.00  0.00     0.004 A 
ATOM     21  C   UNL     1       9.081 -25.158  24.917  1.00  0.00     0.048 C 
BRANCH  18  22
ATOM     22  C   UNL     1      14.274 -27.259  23.248  1.00  0.00     0.013 C 
ATOM     23  C   UNL     1      14.403 -28.759  23.529  1.00  0.00     0.012 C 
ATOM     24  C   UNL     1      14.551 -26.953  21.775  1.00  0.00     0.012 C 
ENDBRANCH  18  22
ENDBRANCH  14  15
ENDBRANCH   1  14
TORSDOF 5
ENDMDL
