MODEL 1
REMARK VINA RESULT:    -5.443      0.000      0.000
REMARK INTER + INTRA:          -6.982
REMARK INTER:                  -6.397
REMARK INTRA:                  -0.584
REMARK UNBOUND:                -0.584
REMARK SMILES C#CCOc1cc(C(C)C)ccc1C
REMARK SMILES IDX 5 1 6 2 7 3 11 4 12 5 13 6 14 7 4 8 3 9 2 10 1 11 8 12 9 13
REMARK SMILES IDX 10 14
REMARK H PARENT
ROOT
ATOM      1  C   UNL     1      12.750 -23.332  23.015  1.00  0.00     0.123 A 
ATOM      2  C   UNL     1      13.617 -24.421  22.856  1.00  0.00     0.050 A 
ATOM      3  C   UNL     1      13.268 -25.702  23.319  1.00  0.00    -0.042 A 
ATOM      4  C   UNL     1      12.029 -25.874  23.948  1.00  0.00     0.004 A 
ATOM      5  C   UNL     1      11.160 -24.795  24.111  1.00  0.00     0.007 A 
ATOM      6  C   UNL     1      11.510 -23.520  23.648  1.00  0.00    -0.009 A 
ATOM      7  C   UNL     1      10.557 -22.371  23.832  1.00  0.00     0.048 C 
ENDROOT
BRANCH   1   8
ATOM      8  O   UNL     1      13.008 -22.052  22.595  1.00  0.00    -0.481 OA
BRANCH   8   9
ATOM      9  C   UNL     1      14.191 -21.422  23.080  1.00  0.00     0.318 C 
ATOM     10  C   UNL     1      13.847 -20.601  24.250  1.00  0.00    -0.065 C 
ATOM     11  C   UNL     1      13.566 -19.931  25.207  1.00  0.00     0.007 C 
ENDBRANCH   8   9
ENDBRANCH   1   8
BRANCH   3  12
ATOM     12  C   UNL     1      14.232 -26.861  23.132  1.00  0.00     0.013 C 
ATOM     13  C   UNL     1      13.811 -27.760  21.967  1.00  0.00     0.012 C 
ATOM     14  C   UNL     1      14.391 -27.675  24.419  1.00  0.00     0.012 C 
ENDBRANCH   3  12
TORSDOF 3
ENDMDL
MODEL 2
REMARK VINA RESULT:    -5.107      3.100      4.785
REMARK INTER + INTRA:          -6.587
REMARK INTER:                  -6.160
REMARK INTRA:                  -0.427
REMARK UNBOUND:                -0.584
REMARK SMILES C#CCOc1cc(C(C)C)ccc1C
REMARK SMILES IDX 5 1 6 2 7 3 11 4 12 5 13 6 14 7 4 8 3 9 2 10 1 11 8 12 9 13
REMARK SMILES IDX 10 14
REMARK H PARENT
ROOT
ATOM      1  C   UNL     1      10.646 -25.549  22.147  1.00  0.00     0.123 A 
ATOM      2  C   UNL     1      11.737 -26.406  22.334  1.00  0.00     0.050 A 
ATOM      3  C   UNL     1      13.011 -25.904  22.658  1.00  0.00    -0.042 A 
ATOM      4  C   UNL     1      13.171 -24.519  22.790  1.00  0.00     0.004 A 
ATOM      5  C   UNL     1      12.089 -23.658  22.606  1.00  0.00     0.007 A 
ATOM      6  C   UNL     1      10.822 -24.162  22.284  1.00  0.00    -0.009 A 
ATOM      7  C   UNL     1       9.670 -23.216  22.090  1.00  0.00     0.048 C 
ENDROOT
BRANCH   1   8
ATOM      8  O   UNL     1       9.374 -25.952  21.830  1.00  0.00    -0.481 OA
BRANCH   8   9
ATOM      9  C   UNL     1       9.229 -27.024  20.903  1.00  0.00     0.318 C 
ATOM     10  C   UNL     1       8.526 -26.529  19.710  1.00  0.00    -0.065 C 
ATOM     11  C   UNL     1       7.951 -26.125  18.735  1.00  0.00     0.007 C 
ENDBRANCH   8   9
ENDBRANCH   1   8
BRANCH   3  12
ATOM     12  C   UNL     1      14.174 -26.861  22.853  1.00  0.00     0.013 C 
ATOM     13  C   UNL     1      14.172 -27.971  21.799  1.00  0.00     0.012 C 
ATOM     14  C   UNL     1      14.188 -27.450  24.265  1.00  0.00     0.012 C 
ENDBRANCH   3  12
TORSDOF 3
ENDMDL
MODEL 3
REMARK VINA RESULT:    -5.099      2.501      5.154
REMARK INTER + INTRA:          -6.577
REMARK INTER:                  -5.965
REMARK INTRA:                  -0.612
REMARK UNBOUND:                -0.584
REMARK SMILES C#CCOc1cc(C(C)C)ccc1C
REMARK SMILES IDX 5 1 6 2 7 3 11 4 12 5 13 6 14 7 4 8 3 9 2 10 1 11 8 12 9 13
REMARK SMILES IDX 10 14
REMARK H PARENT
ROOT
ATOM      1  C   UNL     1      12.499 -26.286  24.259  1.00  0.00     0.123 A 
ATOM      2  C   UNL     1      11.405 -27.017  24.737  1.00  0.00     0.050 A 
ATOM      3  C   UNL     1      10.088 -26.561  24.550  1.00  0.00    -0.042 A 
ATOM      4  C   UNL     1       9.886 -25.352  23.873  1.00  0.00     0.004 A 
ATOM      5  C   UNL     1      10.971 -24.617  23.393  1.00  0.00     0.007 A 
ATOM      6  C   UNL     1      12.282 -25.075  23.580  1.00  0.00    -0.009 A 
ATOM      7  C   UNL     1      13.436 -24.268  23.054  1.00  0.00     0.048 C 
ENDROOT
BRANCH   1   8
ATOM      8  O   UNL     1      13.813 -26.655  24.395  1.00  0.00    -0.481 OA
BRANCH   8   9
ATOM      9  C   UNL     1      14.196 -27.936  23.902  1.00  0.00     0.318 C 
ATOM     10  C   UNL     1      14.187 -27.902  22.432  1.00  0.00    -0.065 C 
ATOM     11  C   UNL     1      14.179 -27.874  21.230  1.00  0.00     0.007 C 
ENDBRANCH   8   9
ENDBRANCH   1   8
BRANCH   3  12
ATOM     12  C   UNL     1       8.922 -27.377  25.082  1.00  0.00     0.013 C 
ATOM     13  C   UNL     1       9.118 -27.743  26.555  1.00  0.00     0.012 C 
ATOM     14  C   UNL     1       8.679 -28.629  24.237  1.00  0.00     0.012 C 
ENDBRANCH   3  12
TORSDOF 3
ENDMDL
MODEL 4
REMARK VINA RESULT:    -4.860      1.598      5.127
REMARK INTER + INTRA:          -6.297
REMARK INTER:                  -5.944
REMARK INTRA:                  -0.353
REMARK UNBOUND:                -0.584
REMARK SMILES C#CCOc1cc(C(C)C)ccc1C
REMARK SMILES IDX 5 1 6 2 7 3 11 4 12 5 13 6 14 7 4 8 3 9 2 10 1 11 8 12 9 13
REMARK SMILES IDX 10 14
REMARK H PARENT
ROOT
ATOM      1  C   UNL     1      12.484 -24.812  22.605  1.00  0.00     0.123 A 
ATOM      2  C   UNL     1      13.425 -23.832  22.942  1.00  0.00     0.050 A 
ATOM      3  C   UNL     1      13.031 -22.512  23.224  1.00  0.00    -0.042 A 
ATOM      4  C   UNL     1      11.670 -22.190  23.161  1.00  0.00     0.004 A 
ATOM      5  C   UNL     1      10.726 -23.160  22.825  1.00  0.00     0.007 A 
ATOM      6  C   UNL     1      11.121 -24.475  22.545  1.00  0.00    -0.009 A 
ATOM      7  C   UNL     1      10.086 -25.505  22.187  1.00  0.00     0.048 C 
ENDROOT
BRANCH   1   8
ATOM      8  O   UNL     1      12.778 -26.121  22.315  1.00  0.00    -0.481 OA
BRANCH   8   9
ATOM      9  C   UNL     1      14.153 -26.495  22.268  1.00  0.00     0.318 C 
ATOM     10  C   UNL     1      14.319 -27.782  22.960  1.00  0.00    -0.065 C 
ATOM     11  C   UNL     1      14.455 -28.833  23.526  1.00  0.00     0.007 C 
ENDBRANCH   8   9
ENDBRANCH   1   8
BRANCH   3  12
ATOM     12  C   UNL     1      14.077 -21.472  23.586  1.00  0.00     0.013 C 
ATOM     13  C   UNL     1      13.537 -20.460  24.600  1.00  0.00     0.012 C 
ATOM     14  C   UNL     1      14.620 -20.762  22.343  1.00  0.00     0.012 C 
ENDBRANCH   3  12
TORSDOF 3
ENDMDL
MODEL 5
REMARK VINA RESULT:    -4.836      1.965      3.888
REMARK INTER + INTRA:          -6.268
REMARK INTER:                  -5.642
REMARK INTRA:                  -0.627
REMARK UNBOUND:                -0.584
REMARK SMILES C#CCOc1cc(C(C)C)ccc1C
REMARK SMILES IDX 5 1 6 2 7 3 11 4 12 5 13 6 14 7 4 8 3 9 2 10 1 11 8 12 9 13
REMARK SMILES IDX 10 14
REMARK H PARENT
ROOT
ATOM      1  C   UNL     1      11.084 -24.771  23.992  1.00  0.00     0.123 A 
ATOM      2  C   UNL     1      11.640 -26.055  23.962  1.00  0.00     0.050 A 
ATOM      3  C   UNL     1      12.943 -26.273  23.479  1.00  0.00    -0.042 A 
ATOM      4  C   UNL     1      13.682 -25.174  23.024  1.00  0.00     0.004 A 
ATOM      5  C   UNL     1      13.136 -23.892  23.051  1.00  0.00     0.007 A 
ATOM      6  C   UNL     1      11.838 -23.677  23.533  1.00  0.00    -0.009 A 
ATOM      7  C   UNL     1      11.269 -22.286  23.554  1.00  0.00     0.048 C 
ENDROOT
BRANCH   1   8
ATOM      8  O   UNL     1       9.825 -24.468  24.445  1.00  0.00    -0.481 OA
BRANCH   8   9
ATOM      9  C   UNL     1       8.726 -25.159  23.857  1.00  0.00     0.318 C 
ATOM     10  C   UNL     1       8.594 -24.737  22.455  1.00  0.00    -0.065 C 
ATOM     11  C   UNL     1       8.485 -24.392  21.309  1.00  0.00     0.007 C 
ENDBRANCH   8   9
ENDBRANCH   1   8
BRANCH   3  12
ATOM     12  C   UNL     1      13.516 -27.680  23.459  1.00  0.00     0.013 C 
ATOM     13  C   UNL     1      14.565 -27.876  24.557  1.00  0.00     0.012 C 
ATOM     14  C   UNL     1      14.092 -28.034  22.086  1.00  0.00     0.012 C 
ENDBRANCH   3  12
TORSDOF 3
ENDMDL
MODEL 6
REMARK VINA RESULT:    -4.797      2.985      4.958
REMARK INTER + INTRA:          -6.222
REMARK INTER:                  -5.831
REMARK INTRA:                  -0.391
REMARK UNBOUND:                -0.584
REMARK SMILES C#CCOc1cc(C(C)C)ccc1C
REMARK SMILES IDX 5 1 6 2 7 3 11 4 12 5 13 6 14 7 4 8 3 9 2 10 1 11 8 12 9 13
REMARK SMILES IDX 10 14
REMARK H PARENT
ROOT
ATOM      1  C   UNL     1      11.943 -25.347  22.661  1.00  0.00     0.123 A 
ATOM      2  C   UNL     1      11.134 -26.281  22.003  1.00  0.00     0.050 A 
ATOM      3  C   UNL     1       9.943 -25.891  21.365  1.00  0.00    -0.042 A 
ATOM      4  C   UNL     1       9.575 -24.541  21.399  1.00  0.00     0.004 A 
ATOM      5  C   UNL     1      10.375 -23.603  22.052  1.00  0.00     0.007 A 
ATOM      6  C   UNL     1      11.561 -23.994  22.687  1.00  0.00    -0.009 A 
ATOM      7  C   UNL     1      12.408 -22.967  23.385  1.00  0.00     0.048 C 
ENDROOT
BRANCH   1   8
ATOM      8  O   UNL     1      13.117 -25.638  23.308  1.00  0.00    -0.481 OA
BRANCH   8   9
ATOM      9  C   UNL     1      14.162 -26.238  22.547  1.00  0.00     0.318 C 
ATOM     10  C   UNL     1      14.325 -27.633  22.979  1.00  0.00    -0.065 C 
ATOM     11  C   UNL     1      14.458 -28.774  23.333  1.00  0.00     0.007 C 
ENDBRANCH   8   9
ENDBRANCH   1   8
BRANCH   3  12
ATOM     12  C   UNL     1       9.088 -26.930  20.660  1.00  0.00     0.013 C 
ATOM     13  C   UNL     1       8.275 -26.311  19.521  1.00  0.00     0.012 C 
ATOM     14  C   UNL     1       8.177 -27.670  21.643  1.00  0.00     0.012 C 
ENDBRANCH   3  12
TORSDOF 3
ENDMDL
MODEL 7
REMARK VINA RESULT:    -4.722      4.025      5.050
REMARK INTER + INTRA:          -6.135
REMARK INTER:                  -5.501
REMARK INTRA:                  -0.634
REMARK UNBOUND:                -0.584
REMARK SMILES C#CCOc1cc(C(C)C)ccc1C
REMARK SMILES IDX 5 1 6 2 7 3 11 4 12 5 13 6 14 7 4 8 3 9 2 10 1 11 8 12 9 13
REMARK SMILES IDX 10 14
REMARK H PARENT
ROOT
ATOM      1  C   UNL     1       9.922 -27.593  22.457  1.00  0.00     0.123 A 
ATOM      2  C   UNL     1      11.254 -27.752  22.055  1.00  0.00     0.050 A 
ATOM      3  C   UNL     1      12.314 -27.577  22.963  1.00  0.00    -0.042 A 
ATOM      4  C   UNL     1      12.013 -27.237  24.288  1.00  0.00     0.004 A 
ATOM      5  C   UNL     1      10.689 -27.076  24.696  1.00  0.00     0.007 A 
ATOM      6  C   UNL     1       9.636 -27.252  23.789  1.00  0.00    -0.009 A 
ATOM      7  C   UNL     1       8.216 -27.075  24.252  1.00  0.00     0.048 C 
ENDROOT
BRANCH   1   8
ATOM      8  O   UNL     1       8.830 -27.744  21.641  1.00  0.00    -0.481 OA
BRANCH   8   9
ATOM      9  C   UNL     1       8.781 -26.965  20.448  1.00  0.00     0.318 C 
ATOM     10  C   UNL     1       8.576 -25.555  20.810  1.00  0.00    -0.065 C 
ATOM     11  C   UNL     1       8.409 -24.402  21.105  1.00  0.00     0.007 C 
ENDBRANCH   8   9
ENDBRANCH   1   8
BRANCH   3  12
ATOM     12  C   UNL     1      13.748 -27.756  22.495  1.00  0.00     0.013 C 
ATOM     13  C   UNL     1      14.504 -28.760  23.369  1.00  0.00     0.012 C 
ATOM     14  C   UNL     1      14.491 -26.420  22.432  1.00  0.00     0.012 C 
ENDBRANCH   3  12
TORSDOF 3
ENDMDL
MODEL 8
REMARK VINA RESULT:    -4.700      5.691      8.294
REMARK INTER + INTRA:          -6.108
REMARK INTER:                  -5.747
REMARK INTRA:                  -0.362
REMARK UNBOUND:                -0.584
REMARK SMILES C#CCOc1cc(C(C)C)ccc1C
REMARK SMILES IDX 5 1 6 2 7 3 11 4 12 5 13 6 14 7 4 8 3 9 2 10 1 11 8 12 9 13
REMARK SMILES IDX 10 14
REMARK H PARENT
ROOT
ATOM      1  C   UNL     1       9.235 -28.243  21.699  1.00  0.00     0.123 A 
ATOM      2  C   UNL     1       8.171 -27.675  20.989  1.00  0.00     0.050 A 
ATOM      3  C   UNL     1       8.185 -26.319  20.617  1.00  0.00    -0.042 A 
ATOM      4  C   UNL     1       9.291 -25.538  20.973  1.00  0.00     0.004 A 
ATOM      5  C   UNL     1      10.356 -26.095  21.680  1.00  0.00     0.007 A 
ATOM      6  C   UNL     1      10.339 -27.447  22.049  1.00  0.00    -0.009 A 
ATOM      7  C   UNL     1      11.498 -28.027  22.811  1.00  0.00     0.048 C 
ENDROOT
BRANCH   1   8
ATOM      8  O   UNL     1       9.305 -29.553  22.101  1.00  0.00    -0.481 OA
BRANCH   8   9
ATOM      9  C   UNL     1       8.176 -30.098  22.779  1.00  0.00     0.318 C 
ATOM     10  C   UNL     1       7.848 -31.402  22.184  1.00  0.00    -0.065 C 
ATOM     11  C   UNL     1       7.579 -32.467  21.697  1.00  0.00     0.007 C 
ENDBRANCH   8   9
ENDBRANCH   1   8
BRANCH   3  12
ATOM     12  C   UNL     1       7.014 -25.734  19.847  1.00  0.00     0.013 C 
ATOM     13  C   UNL     1       5.728 -26.529  20.090  1.00  0.00     0.012 C 
ATOM     14  C   UNL     1       7.317 -25.632  18.350  1.00  0.00     0.012 C 
ENDBRANCH   3  12
TORSDOF 3
ENDMDL
