MODEL 1
REMARK VINA RESULT:    -4.750      0.000      0.000
REMARK INTER + INTRA:          -5.262
REMARK INTER:                  -5.167
REMARK INTRA:                  -0.095
REMARK UNBOUND:                -0.095
REMARK SMILES Cc1ccc(C(C)C)cc1O
REMARK SMILES IDX 1 1 2 2 3 3 4 4 5 5 9 6 10 7 11 8 6 10 7 11 8 12
REMARK H PARENT 11 9
ROOT
ATOM      1  C   UNL     1      14.501 -27.964  24.361  1.00  0.00     0.048 C 
ATOM      2  C   UNL     1      13.527 -26.862  24.059  1.00  0.00    -0.009 A 
ATOM      3  C   UNL     1      12.285 -26.843  24.709  1.00  0.00     0.007 A 
ATOM      4  C   UNL     1      11.354 -25.831  24.452  1.00  0.00     0.004 A 
ATOM      5  C   UNL     1      11.640 -24.810  23.537  1.00  0.00    -0.042 A 
ATOM      6  C   UNL     1      12.881 -24.829  22.887  1.00  0.00     0.050 A 
ATOM      7  C   UNL     1      13.807 -25.840  23.146  1.00  0.00     0.118 A 
ENDROOT
BRANCH   7   8
ATOM      8  O   UNL     1      14.985 -25.763  22.458  1.00  0.00    -0.508 OA
ATOM      9  H   UNL     1      15.028 -26.489  21.816  1.00  0.00     0.293 HD
ENDBRANCH   7   8
BRANCH   5  10
ATOM     10  C   UNL     1      10.616 -23.722  23.272  1.00  0.00     0.013 C 
ATOM     11  C   UNL     1      11.164 -22.337  23.623  1.00  0.00     0.012 C 
ATOM     12  C   UNL     1      10.115 -23.760  21.826  1.00  0.00     0.012 C 
ENDBRANCH   5  10
TORSDOF 2
ENDMDL
MODEL 2
REMARK VINA RESULT:    -4.744      1.998      4.512
REMARK INTER + INTRA:          -5.256
REMARK INTER:                  -5.156
REMARK INTRA:                  -0.100
REMARK UNBOUND:                -0.095
REMARK SMILES Cc1ccc(C(C)C)cc1O
REMARK SMILES IDX 1 1 2 2 3 3 4 4 5 5 9 6 10 7 11 8 6 10 7 11 8 12
REMARK H PARENT 11 9
ROOT
ATOM      1  C   UNL     1      10.186 -23.131  24.200  1.00  0.00     0.048 C 
ATOM      2  C   UNL     1      11.239 -24.161  23.906  1.00  0.00    -0.009 A 
ATOM      3  C   UNL     1      12.401 -23.781  23.220  1.00  0.00     0.007 A 
ATOM      4  C   UNL     1      13.402 -24.714  22.930  1.00  0.00     0.004 A 
ATOM      5  C   UNL     1      13.268 -26.053  23.318  1.00  0.00    -0.042 A 
ATOM      6  C   UNL     1      12.106 -26.432  24.004  1.00  0.00     0.050 A 
ATOM      7  C   UNL     1      11.110 -25.499  24.292  1.00  0.00     0.118 A 
ENDROOT
BRANCH   7   8
ATOM      8  O   UNL     1      10.019 -25.975  24.963  1.00  0.00    -0.508 OA
ATOM      9  H   UNL     1       9.939 -26.929  24.808  1.00  0.00     0.293 HD
ENDBRANCH   7   8
BRANCH   5  10
ATOM     10  C   UNL     1      14.365 -27.050  22.994  1.00  0.00     0.013 C 
ATOM     11  C   UNL     1      14.531 -28.085  24.109  1.00  0.00     0.012 C 
ATOM     12  C   UNL     1      14.123 -27.735  21.646  1.00  0.00     0.012 C 
ENDBRANCH   5  10
TORSDOF 2
ENDMDL
MODEL 3
REMARK VINA RESULT:    -4.647      1.639      4.139
REMARK INTER + INTRA:          -5.149
REMARK INTER:                  -5.025
REMARK INTRA:                  -0.125
REMARK UNBOUND:                -0.095
REMARK SMILES Cc1ccc(C(C)C)cc1O
REMARK SMILES IDX 1 1 2 2 3 3 4 4 5 5 9 6 10 7 11 8 6 10 7 11 8 12
REMARK H PARENT 11 9
ROOT
ATOM      1  C   UNL     1      10.098 -22.969  24.080  1.00  0.00     0.048 C 
ATOM      2  C   UNL     1      11.174 -23.988  23.840  1.00  0.00    -0.009 A 
ATOM      3  C   UNL     1      10.919 -25.337  24.125  1.00  0.00     0.007 A 
ATOM      4  C   UNL     1      11.898 -26.314  23.913  1.00  0.00     0.004 A 
ATOM      5  C   UNL     1      13.159 -25.968  23.412  1.00  0.00    -0.042 A 
ATOM      6  C   UNL     1      13.413 -24.619  23.128  1.00  0.00     0.050 A 
ATOM      7  C   UNL     1      12.434 -23.648  23.340  1.00  0.00     0.118 A 
ENDROOT
BRANCH   7   8
ATOM      8  O   UNL     1      12.787 -22.365  23.030  1.00  0.00    -0.508 OA
ATOM      9  H   UNL     1      13.752 -22.308  22.954  1.00  0.00     0.293 HD
ENDBRANCH   7   8
BRANCH   5  10
ATOM     10  C   UNL     1      14.208 -27.042  23.190  1.00  0.00     0.013 C 
ATOM     11  C   UNL     1      14.523 -27.796  24.485  1.00  0.00     0.012 C 
ATOM     12  C   UNL     1      13.794 -28.012  22.081  1.00  0.00     0.012 C 
ENDBRANCH   5  10
TORSDOF 2
ENDMDL
MODEL 4
REMARK VINA RESULT:    -4.571      2.488      4.547
REMARK INTER + INTRA:          -5.067
REMARK INTER:                  -4.942
REMARK INTRA:                  -0.125
REMARK UNBOUND:                -0.095
REMARK SMILES Cc1ccc(C(C)C)cc1O
REMARK SMILES IDX 1 1 2 2 3 3 4 4 5 5 9 6 10 7 11 8 6 10 7 11 8 12
REMARK H PARENT 11 9
ROOT
ATOM      1  C   UNL     1       8.224 -25.480  20.564  1.00  0.00     0.048 C 
ATOM      2  C   UNL     1       9.554 -25.583  21.251  1.00  0.00    -0.009 A 
ATOM      3  C   UNL     1      10.070 -26.848  21.568  1.00  0.00     0.007 A 
ATOM      4  C   UNL     1      11.307 -26.980  22.208  1.00  0.00     0.004 A 
ATOM      5  C   UNL     1      12.061 -25.851  22.551  1.00  0.00    -0.042 A 
ATOM      6  C   UNL     1      11.545 -24.587  22.235  1.00  0.00     0.050 A 
ATOM      7  C   UNL     1      10.311 -24.459  21.595  1.00  0.00     0.118 A 
ENDROOT
BRANCH   7   8
ATOM      8  O   UNL     1       9.902 -23.181  21.335  1.00  0.00    -0.508 OA
ATOM      9  H   UNL     1       9.615 -22.763  22.161  1.00  0.00     0.293 HD
ENDBRANCH   7   8
BRANCH   5  10
ATOM     10  C   UNL     1      13.400 -26.016  23.246  1.00  0.00     0.013 C 
ATOM     11  C   UNL     1      13.292 -26.941  24.460  1.00  0.00     0.012 C 
ATOM     12  C   UNL     1      14.479 -26.509  22.279  1.00  0.00     0.012 C 
ENDBRANCH   5  10
TORSDOF 2
ENDMDL
MODEL 5
REMARK VINA RESULT:    -4.557      1.975      2.373
REMARK INTER + INTRA:          -5.052
REMARK INTER:                  -4.927
REMARK INTRA:                  -0.125
REMARK UNBOUND:                -0.095
REMARK SMILES Cc1ccc(C(C)C)cc1O
REMARK SMILES IDX 1 1 2 2 3 3 4 4 5 5 9 6 10 7 11 8 6 10 7 11 8 12
REMARK H PARENT 11 9
ROOT
ATOM      1  C   UNL     1      14.194 -28.483  22.422  1.00  0.00     0.048 C 
ATOM      2  C   UNL     1      13.460 -27.179  22.539  1.00  0.00    -0.009 A 
ATOM      3  C   UNL     1      14.138 -26.048  23.016  1.00  0.00     0.007 A 
ATOM      4  C   UNL     1      13.486 -24.817  23.137  1.00  0.00     0.004 A 
ATOM      5  C   UNL     1      12.136 -24.683  22.787  1.00  0.00    -0.042 A 
ATOM      6  C   UNL     1      11.459 -25.814  22.311  1.00  0.00     0.050 A 
ATOM      7  C   UNL     1      12.113 -27.040  22.190  1.00  0.00     0.118 A 
ENDROOT
BRANCH   7   8
ATOM      8  O   UNL     1      11.359 -28.077  21.717  1.00  0.00    -0.508 OA
ATOM      9  H   UNL     1      10.440 -27.959  22.001  1.00  0.00     0.293 HD
ENDBRANCH   7   8
BRANCH   5  10
ATOM     10  C   UNL     1      11.446 -23.339  22.927  1.00  0.00     0.013 C 
ATOM     11  C   UNL     1      10.311 -23.394  23.953  1.00  0.00     0.012 C 
ATOM     12  C   UNL     1      12.441 -22.229  23.274  1.00  0.00     0.012 C 
ENDBRANCH   5  10
TORSDOF 2
ENDMDL
MODEL 6
REMARK VINA RESULT:    -4.542      2.320      4.474
REMARK INTER + INTRA:          -5.036
REMARK INTER:                  -4.931
REMARK INTRA:                  -0.104
REMARK UNBOUND:                -0.095
REMARK SMILES Cc1ccc(C(C)C)cc1O
REMARK SMILES IDX 1 1 2 2 3 3 4 4 5 5 9 6 10 7 11 8 6 10 7 11 8 12
REMARK H PARENT 11 9
ROOT
ATOM      1  C   UNL     1      13.793 -19.416  24.322  1.00  0.00     0.048 C 
ATOM      2  C   UNL     1      13.227 -20.765  23.986  1.00  0.00    -0.009 A 
ATOM      3  C   UNL     1      11.865 -21.014  24.205  1.00  0.00     0.007 A 
ATOM      4  C   UNL     1      11.304 -22.259  23.903  1.00  0.00     0.004 A 
ATOM      5  C   UNL     1      12.091 -23.291  23.375  1.00  0.00    -0.042 A 
ATOM      6  C   UNL     1      13.452 -23.041  23.157  1.00  0.00     0.050 A 
ATOM      7  C   UNL     1      14.008 -21.798  23.458  1.00  0.00     0.118 A 
ENDROOT
BRANCH   7   8
ATOM      8  O   UNL     1      15.345 -21.663  23.207  1.00  0.00    -0.508 OA
ATOM      9  H   UNL     1      15.535 -21.979  22.311  1.00  0.00     0.293 HD
ENDBRANCH   7   8
BRANCH   5  10
ATOM     10  C   UNL     1      11.463 -24.635  23.055  1.00  0.00     0.013 C 
ATOM     11  C   UNL     1      10.697 -24.596  21.731  1.00  0.00     0.012 C 
ATOM     12  C   UNL     1      12.506 -25.756  23.050  1.00  0.00     0.012 C 
ENDBRANCH   5  10
TORSDOF 2
ENDMDL
MODEL 7
REMARK VINA RESULT:    -4.494      3.227      4.701
REMARK INTER + INTRA:          -4.983
REMARK INTER:                  -4.888
REMARK INTRA:                  -0.095
REMARK UNBOUND:                -0.095
REMARK SMILES Cc1ccc(C(C)C)cc1O
REMARK SMILES IDX 1 1 2 2 3 3 4 4 5 5 9 6 10 7 11 8 6 10 7 11 8 12
REMARK H PARENT 11 9
ROOT
ATOM      1  C   UNL     1       8.073 -27.978  24.098  1.00  0.00     0.048 C 
ATOM      2  C   UNL     1       9.558 -27.831  23.935  1.00  0.00    -0.009 A 
ATOM      3  C   UNL     1      10.297 -27.166  24.925  1.00  0.00     0.007 A 
ATOM      4  C   UNL     1      11.682 -27.011  24.806  1.00  0.00     0.004 A 
ATOM      5  C   UNL     1      12.367 -27.516  23.693  1.00  0.00    -0.042 A 
ATOM      6  C   UNL     1      11.629 -28.179  22.705  1.00  0.00     0.050 A 
ATOM      7  C   UNL     1      10.247 -28.333  22.827  1.00  0.00     0.118 A 
ENDROOT
BRANCH   7   8
ATOM      8  O   UNL     1       9.626 -28.995  21.806  1.00  0.00    -0.508 OA
ATOM      9  H   UNL     1      10.007 -29.883  21.721  1.00  0.00     0.293 HD
ENDBRANCH   7   8
BRANCH   5  10
ATOM     10  C   UNL     1      13.870 -27.336  23.583  1.00  0.00     0.013 C 
ATOM     11  C   UNL     1      14.586 -28.680  23.433  1.00  0.00     0.012 C 
ATOM     12  C   UNL     1      14.241 -26.390  22.439  1.00  0.00     0.012 C 
ENDBRANCH   5  10
TORSDOF 2
ENDMDL
MODEL 8
REMARK VINA RESULT:    -4.444      2.357      4.289
REMARK INTER + INTRA:          -4.929
REMARK INTER:                  -4.805
REMARK INTRA:                  -0.124
REMARK UNBOUND:                -0.095
REMARK SMILES Cc1ccc(C(C)C)cc1O
REMARK SMILES IDX 1 1 2 2 3 3 4 4 5 5 9 6 10 7 11 8 6 10 7 11 8 12
REMARK H PARENT 11 9
ROOT
ATOM      1  C   UNL     1      12.637 -21.934  22.768  1.00  0.00     0.048 C 
ATOM      2  C   UNL     1      12.456 -23.418  22.632  1.00  0.00    -0.009 A 
ATOM      3  C   UNL     1      13.431 -24.281  23.150  1.00  0.00     0.007 A 
ATOM      4  C   UNL     1      13.294 -25.669  23.041  1.00  0.00     0.004 A 
ATOM      5  C   UNL     1      12.178 -26.232  22.410  1.00  0.00    -0.042 A 
ATOM      6  C   UNL     1      11.203 -25.368  21.892  1.00  0.00     0.050 A 
ATOM      7  C   UNL     1      11.343 -23.984  22.003  1.00  0.00     0.118 A 
ENDROOT
BRANCH   7   8
ATOM      8  O   UNL     1      10.335 -23.236  21.463  1.00  0.00    -0.508 OA
ATOM      9  H   UNL     1      10.700 -22.402  21.128  1.00  0.00     0.293 HD
ENDBRANCH   7   8
BRANCH   5  10
ATOM     10  C   UNL     1      12.049 -27.740  22.302  1.00  0.00     0.013 C 
ATOM     11  C   UNL     1      13.104 -28.456  23.147  1.00  0.00     0.012 C 
ATOM     12  C   UNL     1      10.640 -28.212  22.671  1.00  0.00     0.012 C 
ENDBRANCH   5  10
TORSDOF 2
ENDMDL
