MODEL 1
REMARK VINA RESULT:    -5.069      0.000      0.000
REMARK INTER + INTRA:          -6.657
REMARK INTER:                  -6.106
REMARK INTRA:                  -0.550
REMARK UNBOUND:                -0.550
REMARK SMILES CC(=O)Oc1ccccc1C(=O)O
REMARK SMILES IDX 5 1 6 2 7 3 8 4 9 5 10 6 4 7 2 8 3 9 1 10 11 11 12 12 13 13
REMARK H PARENT 13 14
ROOT
ATOM      1  C   UNL     1       6.077 -26.013  20.238  1.00  0.00     0.145 A 
ATOM      2  C   UNL     1       6.437 -26.145  21.584  1.00  0.00     0.048 A 
ATOM      3  C   UNL     1       7.779 -26.294  21.928  1.00  0.00     0.004 A 
ATOM      4  C   UNL     1       8.754 -26.324  20.931  1.00  0.00     0.001 A 
ATOM      5  C   UNL     1       8.389 -26.211  19.585  1.00  0.00     0.019 A 
ATOM      6  C   UNL     1       7.042 -26.061  19.221  1.00  0.00     0.102 A 
ENDROOT
BRANCH   1   7
ATOM      7  O   UNL     1       4.713 -25.896  19.959  1.00  0.00    -0.426 OA
BRANCH   7   8
ATOM      8  C   UNL     1       4.243 -24.597  20.125  1.00  0.00     0.308 C 
ATOM      9  O   UNL     1       4.666 -23.591  19.570  1.00  0.00    -0.252 OA
ATOM     10  C   UNL     1       3.129 -24.608  21.129  1.00  0.00     0.139 C 
ENDBRANCH   7   8
ENDBRANCH   1   7
BRANCH   6  11
ATOM     11  C   UNL     1       6.645 -25.969  17.791  1.00  0.00     0.339 C 
ATOM     12  O   UNL     1       6.942 -25.094  17.001  1.00  0.00    -0.246 OA
BRANCH  11  13
ATOM     13  O   UNL     1       5.868 -27.000  17.405  1.00  0.00    -0.478 OA
ATOM     14  H   UNL     1       4.959 -26.695  17.604  1.00  0.00     0.297 HD
ENDBRANCH  11  13
ENDBRANCH   6  11
TORSDOF 4
ENDMDL
MODEL 2
REMARK VINA RESULT:    -4.992      1.603      3.469
REMARK INTER + INTRA:          -6.564
REMARK INTER:                  -6.037
REMARK INTRA:                  -0.527
REMARK UNBOUND:                -0.550
REMARK SMILES CC(=O)Oc1ccccc1C(=O)O
REMARK SMILES IDX 5 1 6 2 7 3 8 4 9 5 10 6 4 7 2 8 3 9 1 10 11 11 12 12 13 13
REMARK H PARENT 13 14
ROOT
ATOM      1  C   UNL     1       6.231 -26.531  20.364  1.00  0.00     0.145 A 
ATOM      2  C   UNL     1       5.748 -26.333  21.662  1.00  0.00     0.048 A 
ATOM      3  C   UNL     1       4.674 -25.471  21.875  1.00  0.00     0.004 A 
ATOM      4  C   UNL     1       4.096 -24.800  20.797  1.00  0.00     0.001 A 
ATOM      5  C   UNL     1       4.593 -24.985  19.503  1.00  0.00     0.019 A 
ATOM      6  C   UNL     1       5.674 -25.850  19.271  1.00  0.00     0.102 A 
ENDROOT
BRANCH   1   7
ATOM      7  O   UNL     1       7.327 -27.386  20.224  1.00  0.00    -0.426 OA
BRANCH   7   8
ATOM      8  C   UNL     1       8.530 -26.770  20.553  1.00  0.00     0.308 C 
ATOM      9  O   UNL     1       8.921 -25.677  20.166  1.00  0.00    -0.252 OA
ATOM     10  C   UNL     1       9.310 -27.680  21.455  1.00  0.00     0.139 C 
ENDBRANCH   7   8
ENDBRANCH   1   7
BRANCH   6  11
ATOM     11  C   UNL     1       6.227 -26.030  17.903  1.00  0.00     0.339 C 
ATOM     12  O   UNL     1       6.747 -25.181  17.204  1.00  0.00    -0.246 OA
BRANCH  11  13
ATOM     13  O   UNL     1       6.097 -27.294  17.456  1.00  0.00    -0.478 OA
ATOM     14  H   UNL     1       6.929 -27.727  17.736  1.00  0.00     0.297 HD
ENDBRANCH  11  13
ENDBRANCH   6  11
TORSDOF 4
ENDMDL
MODEL 3
REMARK VINA RESULT:    -4.968      6.471      7.870
REMARK INTER + INTRA:          -6.535
REMARK INTER:                  -5.831
REMARK INTRA:                  -0.704
REMARK UNBOUND:                -0.550
REMARK SMILES CC(=O)Oc1ccccc1C(=O)O
REMARK SMILES IDX 5 1 6 2 7 3 8 4 9 5 10 6 4 7 2 8 3 9 1 10 11 11 12 12 13 13
REMARK H PARENT 13 14
ROOT
ATOM      1  C   UNL     1      11.786 -26.291  24.113  1.00  0.00     0.145 A 
ATOM      2  C   UNL     1      11.038 -25.134  23.869  1.00  0.00     0.048 A 
ATOM      3  C   UNL     1      11.638 -24.045  23.239  1.00  0.00     0.004 A 
ATOM      4  C   UNL     1      12.981 -24.108  22.869  1.00  0.00     0.001 A 
ATOM      5  C   UNL     1      13.731 -25.260  23.132  1.00  0.00     0.019 A 
ATOM      6  C   UNL     1      13.142 -26.365  23.765  1.00  0.00     0.102 A 
ENDROOT
BRANCH   1   7
ATOM      7  O   UNL     1      11.132 -27.335  24.773  1.00  0.00    -0.426 OA
BRANCH   7   8
ATOM      8  C   UNL     1      10.301 -28.064  23.929  1.00  0.00     0.308 C 
ATOM      9  O   UNL     1      10.626 -28.627  22.892  1.00  0.00    -0.252 OA
ATOM     10  C   UNL     1       8.906 -28.036  24.478  1.00  0.00     0.139 C 
ENDBRANCH   7   8
ENDBRANCH   1   7
BRANCH   6  11
ATOM     11  C   UNL     1      13.941 -27.581  24.075  1.00  0.00     0.339 C 
ATOM     12  O   UNL     1      14.796 -27.700  24.932  1.00  0.00    -0.246 OA
BRANCH  11  13
ATOM     13  O   UNL     1      13.629 -28.620  23.275  1.00  0.00    -0.478 OA
ATOM     14  H   UNL     1      14.054 -28.393  22.422  1.00  0.00     0.297 HD
ENDBRANCH  11  13
ENDBRANCH   6  11
TORSDOF 4
ENDMDL
MODEL 4
REMARK VINA RESULT:    -4.704      6.366      8.359
REMARK INTER + INTRA:          -6.217
REMARK INTER:                  -5.686
REMARK INTRA:                  -0.531
REMARK UNBOUND:                -0.550
REMARK SMILES CC(=O)Oc1ccccc1C(=O)O
REMARK SMILES IDX 5 1 6 2 7 3 8 4 9 5 10 6 4 7 2 8 3 9 1 10 11 11 12 12 13 13
REMARK H PARENT 13 14
ROOT
ATOM      1  C   UNL     1      12.469 -25.691  23.269  1.00  0.00     0.145 A 
ATOM      2  C   UNL     1      13.387 -24.760  22.771  1.00  0.00     0.048 A 
ATOM      3  C   UNL     1      13.138 -23.397  22.919  1.00  0.00     0.004 A 
ATOM      4  C   UNL     1      11.970 -22.968  23.551  1.00  0.00     0.001 A 
ATOM      5  C   UNL     1      11.046 -23.901  24.032  1.00  0.00     0.019 A 
ATOM      6  C   UNL     1      11.281 -25.277  23.890  1.00  0.00     0.102 A 
ENDROOT
BRANCH   1   7
ATOM      7  O   UNL     1      12.766 -27.041  23.062  1.00  0.00    -0.426 OA
BRANCH   7   8
ATOM      8  C   UNL     1      13.746 -27.511  23.928  1.00  0.00     0.308 C 
ATOM      9  O   UNL     1      14.011 -27.073  25.040  1.00  0.00    -0.252 OA
ATOM     10  C   UNL     1      14.468 -28.650  23.271  1.00  0.00     0.139 C 
ENDBRANCH   7   8
ENDBRANCH   1   7
BRANCH   6  11
ATOM     11  C   UNL     1      10.290 -26.274  24.373  1.00  0.00     0.339 C 
ATOM     12  O   UNL     1       9.159 -26.446  23.957  1.00  0.00    -0.246 OA
BRANCH  11  13
ATOM     13  O   UNL     1      10.766 -27.029  25.382  1.00  0.00    -0.478 OA
ATOM     14  H   UNL     1      10.165 -26.826  26.129  1.00  0.00     0.297 HD
ENDBRANCH  11  13
ENDBRANCH   6  11
TORSDOF 4
ENDMDL
MODEL 5
REMARK VINA RESULT:    -4.704      5.086      6.266
REMARK INTER + INTRA:          -6.216
REMARK INTER:                  -5.509
REMARK INTRA:                  -0.707
REMARK UNBOUND:                -0.550
REMARK SMILES CC(=O)Oc1ccccc1C(=O)O
REMARK SMILES IDX 5 1 6 2 7 3 8 4 9 5 10 6 4 7 2 8 3 9 1 10 11 11 12 12 13 13
REMARK H PARENT 13 14
ROOT
ATOM      1  C   UNL     1      11.744 -25.863  22.745  1.00  0.00     0.145 A 
ATOM      2  C   UNL     1      12.934 -25.185  23.032  1.00  0.00     0.048 A 
ATOM      3  C   UNL     1      14.158 -25.801  22.776  1.00  0.00     0.004 A 
ATOM      4  C   UNL     1      14.191 -27.091  22.248  1.00  0.00     0.001 A 
ATOM      5  C   UNL     1      13.000 -27.773  21.979  1.00  0.00     0.019 A 
ATOM      6  C   UNL     1      11.759 -27.168  22.231  1.00  0.00     0.102 A 
ENDROOT
BRANCH   1   7
ATOM      7  O   UNL     1      10.553 -25.201  23.052  1.00  0.00    -0.426 OA
BRANCH   7   8
ATOM      8  C   UNL     1      10.249 -24.196  22.139  1.00  0.00     0.308 C 
ATOM      9  O   UNL     1      10.058 -24.333  20.938  1.00  0.00    -0.252 OA
ATOM     10  C   UNL     1      10.215 -22.881  22.859  1.00  0.00     0.139 C 
ENDBRANCH   7   8
ENDBRANCH   1   7
BRANCH   6  11
ATOM     11  C   UNL     1      10.489 -27.898  21.976  1.00  0.00     0.339 C 
ATOM     12  O   UNL     1      10.063 -28.865  22.579  1.00  0.00    -0.246 OA
BRANCH  11  13
ATOM     13  O   UNL     1       9.792 -27.376  20.947  1.00  0.00    -0.478 OA
ATOM     14  H   UNL     1       8.905 -27.210  21.327  1.00  0.00     0.297 HD
ENDBRANCH  11  13
ENDBRANCH   6  11
TORSDOF 4
ENDMDL
MODEL 6
REMARK VINA RESULT:    -4.619      6.215      8.099
REMARK INTER + INTRA:          -6.114
REMARK INTER:                  -5.456
REMARK INTRA:                  -0.659
REMARK UNBOUND:                -0.550
REMARK SMILES CC(=O)Oc1ccccc1C(=O)O
REMARK SMILES IDX 5 1 6 2 7 3 8 4 9 5 10 6 4 7 2 8 3 9 1 10 11 11 12 12 13 13
REMARK H PARENT 13 14
ROOT
ATOM      1  C   UNL     1      12.041 -25.800  23.061  1.00  0.00     0.145 A 
ATOM      2  C   UNL     1      11.314 -26.876  22.541  1.00  0.00     0.048 A 
ATOM      3  C   UNL     1      10.257 -26.637  21.664  1.00  0.00     0.004 A 
ATOM      4  C   UNL     1       9.922 -25.327  21.320  1.00  0.00     0.001 A 
ATOM      5  C   UNL     1      10.639 -24.252  21.856  1.00  0.00     0.019 A 
ATOM      6  C   UNL     1      11.705 -24.476  22.740  1.00  0.00     0.102 A 
ENDROOT
BRANCH   1   7
ATOM      7  O   UNL     1      13.068 -26.108  23.956  1.00  0.00    -0.426 OA
BRANCH   7   8
ATOM      8  C   UNL     1      14.158 -26.708  23.333  1.00  0.00     0.308 C 
ATOM      9  O   UNL     1      14.828 -26.239  22.422  1.00  0.00    -0.252 OA
ATOM     10  C   UNL     1      14.381 -28.060  23.942  1.00  0.00     0.139 C 
ENDBRANCH   7   8
ENDBRANCH   1   7
BRANCH   6  11
ATOM     11  C   UNL     1      12.453 -23.338  23.337  1.00  0.00     0.339 C 
ATOM     12  O   UNL     1      11.986 -22.376  23.918  1.00  0.00    -0.246 OA
BRANCH  11  13
ATOM     13  O   UNL     1      13.785 -23.452  23.172  1.00  0.00    -0.478 OA
ATOM     14  H   UNL     1      14.149 -23.231  24.054  1.00  0.00     0.297 HD
ENDBRANCH  11  13
ENDBRANCH   6  11
TORSDOF 4
ENDMDL
MODEL 7
REMARK VINA RESULT:    -4.506      5.556      7.478
REMARK INTER + INTRA:          -5.978
REMARK INTER:                  -5.277
REMARK INTRA:                  -0.701
REMARK UNBOUND:                -0.550
REMARK SMILES CC(=O)Oc1ccccc1C(=O)O
REMARK SMILES IDX 5 1 6 2 7 3 8 4 9 5 10 6 4 7 2 8 3 9 1 10 11 11 12 12 13 13
REMARK H PARENT 13 14
ROOT
ATOM      1  C   UNL     1      11.946 -26.148  23.249  1.00  0.00     0.145 A 
ATOM      2  C   UNL     1      12.741 -25.009  23.419  1.00  0.00     0.048 A 
ATOM      3  C   UNL     1      12.424 -23.838  22.735  1.00  0.00     0.004 A 
ATOM      4  C   UNL     1      11.324 -23.809  21.876  1.00  0.00     0.001 A 
ATOM      5  C   UNL     1      10.542 -24.954  21.695  1.00  0.00     0.019 A 
ATOM      6  C   UNL     1      10.848 -26.143  22.376  1.00  0.00     0.102 A 
ENDROOT
BRANCH   1   7
ATOM      7  O   UNL     1      12.336 -27.297  23.942  1.00  0.00    -0.426 OA
BRANCH   7   8
ATOM      8  C   UNL     1      13.508 -27.851  23.440  1.00  0.00     0.308 C 
ATOM      9  O   UNL     1      13.682 -28.298  22.314  1.00  0.00    -0.252 OA
ATOM     10  C   UNL     1      14.550 -27.843  24.519  1.00  0.00     0.139 C 
ENDBRANCH   7   8
ENDBRANCH   1   7
BRANCH   6  11
ATOM     11  C   UNL     1      10.039 -27.372  22.166  1.00  0.00     0.339 C 
ATOM     12  O   UNL     1       8.893 -27.567  22.524  1.00  0.00    -0.246 OA
BRANCH  11  13
ATOM     13  O   UNL     1      10.718 -28.329  21.503  1.00  0.00    -0.478 OA
ATOM     14  H   UNL     1      11.647 -28.192  21.782  1.00  0.00     0.297 HD
ENDBRANCH  11  13
ENDBRANCH   6  11
TORSDOF 4
ENDMDL
MODEL 8
REMARK VINA RESULT:    -4.498      7.491      8.662
REMARK INTER + INTRA:          -5.969
REMARK INTER:                  -5.405
REMARK INTRA:                  -0.564
REMARK UNBOUND:                -0.550
REMARK SMILES CC(=O)Oc1ccccc1C(=O)O
REMARK SMILES IDX 5 1 6 2 7 3 8 4 9 5 10 6 4 7 2 8 3 9 1 10 11 11 12 12 13 13
REMARK H PARENT 13 14
ROOT
ATOM      1  C   UNL     1       6.493 -31.624  24.109  1.00  0.00     0.145 A 
ATOM      2  C   UNL     1       7.670 -31.104  23.558  1.00  0.00     0.048 A 
ATOM      3  C   UNL     1       8.110 -31.557  22.316  1.00  0.00     0.004 A 
ATOM      4  C   UNL     1       7.384 -32.534  21.635  1.00  0.00     0.001 A 
ATOM      5  C   UNL     1       6.218 -33.065  22.196  1.00  0.00     0.019 A 
ATOM      6  C   UNL     1       5.761 -32.620  23.446  1.00  0.00     0.102 A 
ENDROOT
BRANCH   1   7
ATOM      7  O   UNL     1       6.124 -31.147  25.369  1.00  0.00    -0.426 OA
BRANCH   7   8
ATOM      8  C   UNL     1       6.945 -31.627  26.384  1.00  0.00     0.308 C 
ATOM      9  O   UNL     1       7.179 -32.800  26.641  1.00  0.00    -0.252 OA
ATOM     10  C   UNL     1       7.497 -30.463  27.152  1.00  0.00     0.139 C 
ENDBRANCH   7   8
ENDBRANCH   1   7
BRANCH   6  11
ATOM     11  C   UNL     1       4.539 -33.201  24.063  1.00  0.00     0.339 C 
ATOM     12  O   UNL     1       4.351 -34.364  24.366  1.00  0.00    -0.246 OA
BRANCH  11  13
ATOM     13  O   UNL     1       3.579 -32.279  24.274  1.00  0.00    -0.478 OA
ATOM     14  H   UNL     1       3.768 -31.589  23.604  1.00  0.00     0.297 HD
ENDBRANCH  11  13
ENDBRANCH   6  11
TORSDOF 4
ENDMDL
