MODEL 1
REMARK VINA RESULT:    -6.987      0.000      0.000
REMARK INTER + INTRA:          -9.663
REMARK INTER:                  -9.029
REMARK INTRA:                  -0.634
REMARK UNBOUND:                -0.634
REMARK SMILES Cc1ccc(-c2cc(COc3cc(C(C)C)ccc3C)on2)cc1
REMARK SMILES IDX 9 1 8 2 6 3 7 4 22 5 21 6 5 7 2 8 3 9 24 10 4 11 23 12 1 13
REMARK SMILES IDX 10 14 11 15 12 16 19 17 13 18 18 19 17 20 20 21 14 22 15 23
REMARK SMILES IDX 16 24
REMARK H PARENT
ROOT
ATOM      1  C   UNL     1       7.521 -29.158  22.013  1.00  0.00     0.307 C 
ENDROOT
BRANCH   1   2
ATOM      2  C   UNL     1       8.750 -28.338  22.115  1.00  0.00     0.174 A 
ATOM      3  C   UNL     1      10.441 -26.910  22.308  1.00  0.00     0.114 A 
ATOM      4  C   UNL     1       9.023 -27.011  22.344  1.00  0.00     0.081 A 
ATOM      5  N   UNL     1      10.974 -28.122  22.070  1.00  0.00    -0.079 NA
ATOM      6  O   UNL     1       9.922 -29.003  21.951  1.00  0.00    -0.357 OA
BRANCH   3   7
ATOM      7  C   UNL     1      11.279 -25.719  22.491  1.00  0.00     0.004 A 
ATOM      8  C   UNL     1      12.888 -23.414  22.828  1.00  0.00    -0.051 A 
ATOM      9  C   UNL     1      11.571 -23.300  22.374  1.00  0.00     0.004 A 
ATOM     10  C   UNL     1      13.390 -24.682  23.133  1.00  0.00     0.004 A 
ATOM     11  C   UNL     1      10.779 -24.441  22.203  1.00  0.00     0.011 A 
ATOM     12  C   UNL     1      12.596 -25.823  22.962  1.00  0.00     0.011 A 
ATOM     13  C   UNL     1      13.726 -22.190  23.044  1.00  0.00     0.044 C 
ENDBRANCH   3   7
ENDBRANCH   1   2
BRANCH   1  14
ATOM     14  O   UNL     1       7.909 -30.524  22.154  1.00  0.00    -0.485 OA
BRANCH  14  15
ATOM     15  C   UNL     1       7.167 -31.311  22.996  1.00  0.00     0.123 A 
ATOM     16  C   UNL     1       7.175 -31.222  24.394  1.00  0.00     0.050 A 
ATOM     17  C   UNL     1       6.351 -32.265  22.366  1.00  0.00    -0.009 A 
ATOM     18  C   UNL     1       6.380 -32.071  25.181  1.00  0.00    -0.042 A 
ATOM     19  C   UNL     1       5.557 -33.114  23.148  1.00  0.00     0.007 A 
ATOM     20  C   UNL     1       5.571 -33.017  24.540  1.00  0.00     0.004 A 
ATOM     21  C   UNL     1       6.319 -32.386  20.867  1.00  0.00     0.048 C 
BRANCH  18  22
ATOM     22  C   UNL     1       6.411 -31.949  26.695  1.00  0.00     0.013 C 
ATOM     23  C   UNL     1       5.643 -33.090  27.368  1.00  0.00     0.012 C 
ATOM     24  C   UNL     1       7.846 -31.870  27.224  1.00  0.00     0.012 C 
ENDBRANCH  18  22
ENDBRANCH  14  15
ENDBRANCH   1  14
TORSDOF 5
ENDMDL
MODEL 2
REMARK VINA RESULT:    -6.908      1.413      8.718
REMARK INTER + INTRA:          -9.560
REMARK INTER:                  -9.033
REMARK INTRA:                  -0.528
REMARK UNBOUND:                -0.634
REMARK SMILES Cc1ccc(-c2cc(COc3cc(C(C)C)ccc3C)on2)cc1
REMARK SMILES IDX 9 1 8 2 6 3 7 4 22 5 21 6 5 7 2 8 3 9 24 10 4 11 23 12 1 13
REMARK SMILES IDX 10 14 11 15 12 16 19 17 13 18 18 19 17 20 20 21 14 22 15 23
REMARK SMILES IDX 16 24
REMARK H PARENT
ROOT
ATOM      1  C   UNL     1       9.151 -26.850  20.987  1.00  0.00     0.307 C 
ENDROOT
BRANCH   1   2
ATOM      2  C   UNL     1       8.741 -28.102  21.665  1.00  0.00     0.174 A 
ATOM      3  C   UNL     1       7.888 -29.910  22.633  1.00  0.00     0.114 A 
ATOM      4  C   UNL     1       7.543 -28.709  21.954  1.00  0.00     0.081 A 
ATOM      5  N   UNL     1       9.227 -30.003  22.735  1.00  0.00    -0.079 NA
ATOM      6  O   UNL     1       9.750 -28.880  22.133  1.00  0.00    -0.357 OA
BRANCH   3   7
ATOM      7  C   UNL     1       6.998 -30.945  23.173  1.00  0.00     0.004 A 
ATOM      8  C   UNL     1       5.293 -32.942  24.230  1.00  0.00    -0.051 A 
ATOM      9  C   UNL     1       5.802 -31.935  25.054  1.00  0.00     0.004 A 
ATOM     10  C   UNL     1       5.622 -32.935  22.872  1.00  0.00     0.004 A 
ATOM     11  C   UNL     1       6.649 -30.951  24.531  1.00  0.00     0.011 A 
ATOM     12  C   UNL     1       6.470 -31.950  22.350  1.00  0.00     0.011 A 
ATOM     13  C   UNL     1       4.358 -33.976  24.782  1.00  0.00     0.044 C 
ENDBRANCH   3   7
ENDBRANCH   1   2
BRANCH   1  14
ATOM     14  O   UNL     1       9.347 -25.864  21.998  1.00  0.00    -0.485 OA
BRANCH  14  15
ATOM     15  C   UNL     1      10.631 -25.444  22.235  1.00  0.00     0.123 A 
ATOM     16  C   UNL     1      11.741 -26.288  22.366  1.00  0.00     0.050 A 
ATOM     17  C   UNL     1      10.798 -24.054  22.346  1.00  0.00    -0.009 A 
ATOM     18  C   UNL     1      13.024 -25.769  22.607  1.00  0.00    -0.042 A 
ATOM     19  C   UNL     1      12.076 -23.533  22.587  1.00  0.00     0.007 A 
ATOM     20  C   UNL     1      13.177 -24.381  22.716  1.00  0.00     0.004 A 
ATOM     21  C   UNL     1       9.627 -23.120  22.210  1.00  0.00     0.048 C 
BRANCH  18  22
ATOM     22  C   UNL     1      14.208 -26.712  22.745  1.00  0.00     0.013 C 
ATOM     23  C   UNL     1      14.227 -27.395  24.115  1.00  0.00     0.012 C 
ATOM     24  C   UNL     1      14.237 -27.747  21.618  1.00  0.00     0.012 C 
ENDBRANCH  18  22
ENDBRANCH  14  15
ENDBRANCH   1  14
TORSDOF 5
ENDMDL
MODEL 3
REMARK VINA RESULT:    -6.907      5.106      7.868
REMARK INTER + INTRA:          -9.560
REMARK INTER:                  -8.831
REMARK INTRA:                  -0.729
REMARK UNBOUND:                -0.634
REMARK SMILES Cc1ccc(-c2cc(COc3cc(C(C)C)ccc3C)on2)cc1
REMARK SMILES IDX 9 1 8 2 6 3 7 4 22 5 21 6 5 7 2 8 3 9 24 10 4 11 23 12 1 13
REMARK SMILES IDX 10 14 11 15 12 16 19 17 13 18 18 19 17 20 20 21 14 22 15 23
REMARK SMILES IDX 16 24
REMARK H PARENT
ROOT
ATOM      1  C   UNL     1      11.161 -22.969  22.623  1.00  0.00     0.307 C 
ENDROOT
BRANCH   1   2
ATOM      2  C   UNL     1       9.899 -23.403  21.980  1.00  0.00     0.174 A 
ATOM      3  C   UNL     1       7.891 -23.877  21.156  1.00  0.00     0.114 A 
ATOM      4  C   UNL     1       8.579 -23.034  22.073  1.00  0.00     0.081 A 
ATOM      5  N   UNL     1       8.769 -24.700  20.553  1.00  0.00    -0.079 NA
ATOM      6  O   UNL     1      10.012 -24.401  21.068  1.00  0.00    -0.357 OA
BRANCH   3   7
ATOM      7  C   UNL     1       6.457 -23.917  20.847  1.00  0.00     0.004 A 
ATOM      8  C   UNL     1       3.694 -24.007  20.238  1.00  0.00    -0.051 A 
ATOM      9  C   UNL     1       4.456 -25.179  20.255  1.00  0.00     0.004 A 
ATOM     10  C   UNL     1       4.314 -22.794  20.549  1.00  0.00     0.004 A 
ATOM     11  C   UNL     1       5.823 -25.132  20.551  1.00  0.00     0.011 A 
ATOM     12  C   UNL     1       5.682 -22.748  20.844  1.00  0.00     0.011 A 
ATOM     13  C   UNL     1       2.223 -24.061  19.954  1.00  0.00     0.044 C 
ENDBRANCH   3   7
ENDBRANCH   1   2
BRANCH   1  14
ATOM     14  O   UNL     1      11.247 -23.636  23.881  1.00  0.00    -0.485 OA
BRANCH  14  15
ATOM     15  C   UNL     1      11.529 -24.978  23.870  1.00  0.00     0.123 A 
ATOM     16  C   UNL     1      12.718 -25.545  23.394  1.00  0.00     0.050 A 
ATOM     17  C   UNL     1      10.520 -25.810  24.384  1.00  0.00    -0.009 A 
ATOM     18  C   UNL     1      12.922 -26.935  23.422  1.00  0.00    -0.042 A 
ATOM     19  C   UNL     1      10.721 -27.196  24.413  1.00  0.00     0.007 A 
ATOM     20  C   UNL     1      11.909 -27.752  23.938  1.00  0.00     0.004 A 
ATOM     21  C   UNL     1       9.232 -25.232  24.903  1.00  0.00     0.048 C 
BRANCH  18  22
ATOM     22  C   UNL     1      14.224 -27.520  22.898  1.00  0.00     0.013 C 
ATOM     23  C   UNL     1      14.574 -28.834  23.601  1.00  0.00     0.012 C 
ATOM     24  C   UNL     1      14.187 -27.705  21.380  1.00  0.00     0.012 C 
ENDBRANCH  18  22
ENDBRANCH  14  15
ENDBRANCH   1  14
TORSDOF 5
ENDMDL
MODEL 4
REMARK VINA RESULT:    -6.904      3.190      8.503
REMARK INTER + INTRA:          -9.556
REMARK INTER:                  -8.745
REMARK INTRA:                  -0.811
REMARK UNBOUND:                -0.634
REMARK SMILES Cc1ccc(-c2cc(COc3cc(C(C)C)ccc3C)on2)cc1
REMARK SMILES IDX 9 1 8 2 6 3 7 4 22 5 21 6 5 7 2 8 3 9 24 10 4 11 23 12 1 13
REMARK SMILES IDX 10 14 11 15 12 16 19 17 13 18 18 19 17 20 20 21 14 22 15 23
REMARK SMILES IDX 16 24
REMARK H PARENT
ROOT
ATOM      1  C   UNL     1       9.469 -26.579  20.861  1.00  0.00     0.307 C 
ENDROOT
BRANCH   1   2
ATOM      2  C   UNL     1       9.041 -27.819  21.550  1.00  0.00     0.174 A 
ATOM      3  C   UNL     1       8.167 -29.632  22.491  1.00  0.00     0.114 A 
ATOM      4  C   UNL     1       7.859 -28.507  21.677  1.00  0.00     0.081 A 
ATOM      5  N   UNL     1       9.471 -29.604  22.823  1.00  0.00    -0.079 NA
ATOM      6  O   UNL     1      10.007 -28.478  22.238  1.00  0.00    -0.357 OA
BRANCH   3   7
ATOM      7  C   UNL     1       7.276 -30.705  22.947  1.00  0.00     0.004 A 
ATOM      8  C   UNL     1       5.568 -32.777  23.843  1.00  0.00    -0.051 A 
ATOM      9  C   UNL     1       6.100 -31.854  24.748  1.00  0.00     0.004 A 
ATOM     10  C   UNL     1       5.876 -32.647  22.486  1.00  0.00     0.004 A 
ATOM     11  C   UNL     1       6.948 -30.834  24.304  1.00  0.00     0.011 A 
ATOM     12  C   UNL     1       6.725 -31.625  22.043  1.00  0.00     0.011 A 
ATOM     13  C   UNL     1       4.632 -33.850  24.312  1.00  0.00     0.044 C 
ENDBRANCH   3   7
ENDBRANCH   1   2
BRANCH   1  14
ATOM     14  O   UNL     1       8.579 -26.373  19.766  1.00  0.00    -0.485 OA
BRANCH  14  15
ATOM     15  C   UNL     1       7.574 -25.455  19.928  1.00  0.00     0.123 A 
ATOM     16  C   UNL     1       7.624 -24.354  20.791  1.00  0.00     0.050 A 
ATOM     17  C   UNL     1       6.426 -25.674  19.149  1.00  0.00    -0.009 A 
ATOM     18  C   UNL     1       6.545 -23.460  20.894  1.00  0.00    -0.042 A 
ATOM     19  C   UNL     1       5.347 -24.786  19.249  1.00  0.00     0.007 A 
ATOM     20  C   UNL     1       5.407 -23.691  20.112  1.00  0.00     0.004 A 
ATOM     21  C   UNL     1       6.341 -26.847  18.211  1.00  0.00     0.048 C 
BRANCH  18  22
ATOM     22  C   UNL     1       6.631 -22.275  21.841  1.00  0.00     0.013 C 
ATOM     23  C   UNL     1       7.964 -21.536  21.698  1.00  0.00     0.012 C 
ATOM     24  C   UNL     1       5.452 -21.317  21.653  1.00  0.00     0.012 C 
ENDBRANCH  18  22
ENDBRANCH  14  15
ENDBRANCH   1  14
TORSDOF 5
ENDMDL
MODEL 5
REMARK VINA RESULT:    -6.878      1.896      8.628
REMARK INTER + INTRA:          -9.522
REMARK INTER:                  -8.811
REMARK INTRA:                  -0.711
REMARK UNBOUND:                -0.634
REMARK SMILES Cc1ccc(-c2cc(COc3cc(C(C)C)ccc3C)on2)cc1
REMARK SMILES IDX 9 1 8 2 6 3 7 4 22 5 21 6 5 7 2 8 3 9 24 10 4 11 23 12 1 13
REMARK SMILES IDX 10 14 11 15 12 16 19 17 13 18 18 19 17 20 20 21 14 22 15 23
REMARK SMILES IDX 16 24
REMARK H PARENT
ROOT
ATOM      1  C   UNL     1       9.152 -28.450  21.766  1.00  0.00     0.307 C 
ENDROOT
BRANCH   1   2
ATOM      2  C   UNL     1       8.560 -29.547  22.566  1.00  0.00     0.174 A 
ATOM      3  C   UNL     1       7.614 -31.016  23.938  1.00  0.00     0.114 A 
ATOM      4  C   UNL     1       7.929 -29.638  23.783  1.00  0.00     0.081 A 
ATOM      5  N   UNL     1       8.040 -31.700  22.860  1.00  0.00    -0.079 NA
ATOM      6  O   UNL     1       8.625 -30.785  22.014  1.00  0.00    -0.357 OA
BRANCH   3   7
ATOM      7  C   UNL     1       6.935 -31.680  25.057  1.00  0.00     0.004 A 
ATOM      8  C   UNL     1       5.643 -32.964  27.224  1.00  0.00    -0.051 A 
ATOM      9  C   UNL     1       6.744 -32.132  27.446  1.00  0.00     0.004 A 
ATOM     10  C   UNL     1       5.178 -33.134  25.917  1.00  0.00     0.004 A 
ATOM     11  C   UNL     1       7.384 -31.502  26.374  1.00  0.00     0.011 A 
ATOM     12  C   UNL     1       5.820 -32.504  24.844  1.00  0.00     0.011 A 
ATOM     13  C   UNL     1       4.935 -33.612  28.375  1.00  0.00     0.044 C 
ENDBRANCH   3   7
ENDBRANCH   1   2
BRANCH   1  14
ATOM     14  O   UNL     1       9.203 -27.295  22.601  1.00  0.00    -0.485 OA
BRANCH  14  15
ATOM     15  C   UNL     1      10.439 -26.779  22.896  1.00  0.00     0.123 A 
ATOM     16  C   UNL     1      11.659 -27.398  22.599  1.00  0.00     0.050 A 
ATOM     17  C   UNL     1      10.432 -25.533  23.545  1.00  0.00    -0.009 A 
ATOM     18  C   UNL     1      12.882 -26.795  22.939  1.00  0.00    -0.042 A 
ATOM     19  C   UNL     1      11.649 -24.929  23.885  1.00  0.00     0.007 A 
ATOM     20  C   UNL     1      12.861 -25.553  23.585  1.00  0.00     0.004 A 
ATOM     21  C   UNL     1       9.139 -24.841  23.877  1.00  0.00     0.048 C 
BRANCH  18  22
ATOM     22  C   UNL     1      14.189 -27.493  22.603  1.00  0.00     0.013 C 
ATOM     23  C   UNL     1      14.455 -28.672  23.543  1.00  0.00     0.012 C 
ATOM     24  C   UNL     1      14.229 -27.941  21.140  1.00  0.00     0.012 C 
ENDBRANCH  18  22
ENDBRANCH  14  15
ENDBRANCH   1  14
TORSDOF 5
ENDMDL
MODEL 6
REMARK VINA RESULT:    -6.859      1.562      8.860
REMARK INTER + INTRA:          -9.497
REMARK INTER:                  -8.878
REMARK INTRA:                  -0.620
REMARK UNBOUND:                -0.634
REMARK SMILES Cc1ccc(-c2cc(COc3cc(C(C)C)ccc3C)on2)cc1
REMARK SMILES IDX 9 1 8 2 6 3 7 4 22 5 21 6 5 7 2 8 3 9 24 10 4 11 23 12 1 13
REMARK SMILES IDX 10 14 11 15 12 16 19 17 13 18 18 19 17 20 20 21 14 22 15 23
REMARK SMILES IDX 16 24
REMARK H PARENT
ROOT
ATOM      1  C   UNL     1       9.753 -27.935  21.835  1.00  0.00     0.307 C 
ENDROOT
BRANCH   1   2
ATOM      2  C   UNL     1       9.044 -29.064  22.481  1.00  0.00     0.174 A 
ATOM      3  C   UNL     1       7.963 -30.609  23.655  1.00  0.00     0.114 A 
ATOM      4  C   UNL     1       8.485 -29.288  23.716  1.00  0.00     0.081 A 
ATOM      5  N   UNL     1       8.204 -31.134  22.439  1.00  0.00    -0.079 NA
ATOM      6  O   UNL     1       8.874 -30.172  21.717  1.00  0.00    -0.357 OA
BRANCH   3   7
ATOM      7  C   UNL     1       7.258 -31.365  24.697  1.00  0.00     0.004 A 
ATOM      8  C   UNL     1       5.915 -32.824  26.717  1.00  0.00    -0.051 A 
ATOM      9  C   UNL     1       6.911 -31.902  27.050  1.00  0.00     0.004 A 
ATOM     10  C   UNL     1       5.578 -32.998  25.372  1.00  0.00     0.004 A 
ATOM     11  C   UNL     1       7.577 -31.185  26.051  1.00  0.00     0.011 A 
ATOM     12  C   UNL     1       6.246 -32.281  24.372  1.00  0.00     0.011 A 
ATOM     13  C   UNL     1       5.176 -33.567  27.790  1.00  0.00     0.044 C 
ENDBRANCH   3   7
ENDBRANCH   1   2
BRANCH   1  14
ATOM     14  O   UNL     1      11.141 -28.083  22.127  1.00  0.00    -0.485 OA
BRANCH  14  15
ATOM     15  C   UNL     1      11.851 -26.949  22.429  1.00  0.00     0.123 A 
ATOM     16  C   UNL     1      11.304 -25.665  22.537  1.00  0.00     0.050 A 
ATOM     17  C   UNL     1      13.227 -27.138  22.640  1.00  0.00    -0.009 A 
ATOM     18  C   UNL     1      12.108 -24.556  22.852  1.00  0.00    -0.042 A 
ATOM     19  C   UNL     1      14.031 -26.036  22.955  1.00  0.00     0.007 A 
ATOM     20  C   UNL     1      13.478 -24.759  23.060  1.00  0.00     0.004 A 
ATOM     21  C   UNL     1      13.845 -28.505  22.533  1.00  0.00     0.048 C 
BRANCH  18  22
ATOM     22  C   UNL     1      11.484 -23.175  22.961  1.00  0.00     0.013 C 
ATOM     23  C   UNL     1      10.433 -23.118  24.073  1.00  0.00     0.012 C 
ATOM     24  C   UNL     1      12.546 -22.091  23.158  1.00  0.00     0.012 C 
ENDBRANCH  18  22
ENDBRANCH  14  15
ENDBRANCH   1  14
TORSDOF 5
ENDMDL
MODEL 7
REMARK VINA RESULT:    -6.735      1.707      3.318
REMARK INTER + INTRA:          -9.337
REMARK INTER:                  -8.585
REMARK INTRA:                  -0.752
REMARK UNBOUND:                -0.634
REMARK SMILES Cc1ccc(-c2cc(COc3cc(C(C)C)ccc3C)on2)cc1
REMARK SMILES IDX 9 1 8 2 6 3 7 4 22 5 21 6 5 7 2 8 3 9 24 10 4 11 23 12 1 13
REMARK SMILES IDX 10 14 11 15 12 16 19 17 13 18 18 19 17 20 20 21 14 22 15 23
REMARK SMILES IDX 16 24
REMARK H PARENT
ROOT
ATOM      1  C   UNL     1       9.535 -28.121  21.344  1.00  0.00     0.307 C 
ENDROOT
BRANCH   1   2
ATOM      2  C   UNL     1       9.960 -26.723  21.584  1.00  0.00     0.174 A 
ATOM      3  C   UNL     1      10.771 -24.721  22.104  1.00  0.00     0.114 A 
ATOM      4  C   UNL     1      10.914 -26.112  22.362  1.00  0.00     0.081 A 
ATOM      5  N   UNL     1       9.780 -24.526  21.214  1.00  0.00    -0.079 NA
ATOM      6  O   UNL     1       9.281 -25.771  20.896  1.00  0.00    -0.357 OA
BRANCH   3   7
ATOM      7  C   UNL     1      11.535 -23.601  22.667  1.00  0.00     0.004 A 
ATOM      8  C   UNL     1      12.995 -21.429  23.744  1.00  0.00    -0.051 A 
ATOM      9  C   UNL     1      11.601 -21.378  23.667  1.00  0.00     0.004 A 
ATOM     10  C   UNL     1      13.655 -22.578  23.300  1.00  0.00     0.004 A 
ATOM     11  C   UNL     1      10.880 -22.450  23.130  1.00  0.00     0.011 A 
ATOM     12  C   UNL     1      12.933 -23.650  22.762  1.00  0.00     0.011 A 
ATOM     13  C   UNL     1      13.765 -20.294  24.351  1.00  0.00     0.044 C 
ENDBRANCH   3   7
ENDBRANCH   1   2
BRANCH   1  14
ATOM     14  O   UNL     1       9.811 -28.859  22.533  1.00  0.00    -0.485 OA
BRANCH  14  15
ATOM     15  C   UNL     1       8.785 -29.584  23.083  1.00  0.00     0.123 A 
ATOM     16  C   UNL     1       8.213 -30.727  22.511  1.00  0.00     0.050 A 
ATOM     17  C   UNL     1       8.303 -29.108  24.313  1.00  0.00    -0.009 A 
ATOM     18  C   UNL     1       7.162 -31.410  23.146  1.00  0.00    -0.042 A 
ATOM     19  C   UNL     1       7.256 -29.787  24.950  1.00  0.00     0.007 A 
ATOM     20  C   UNL     1       6.692 -30.925  24.373  1.00  0.00     0.004 A 
ATOM     21  C   UNL     1       8.896 -27.884  24.955  1.00  0.00     0.048 C 
BRANCH  18  22
ATOM     22  C   UNL     1       6.563 -32.647  22.499  1.00  0.00     0.013 C 
ATOM     23  C   UNL     1       5.240 -33.043  23.160  1.00  0.00     0.012 C 
ATOM     24  C   UNL     1       6.386 -32.464  20.990  1.00  0.00     0.012 C 
ENDBRANCH  18  22
ENDBRANCH  14  15
ENDBRANCH   1  14
TORSDOF 5
ENDMDL
MODEL 8
REMARK VINA RESULT:    -6.661      4.476      6.602
REMARK INTER + INTRA:          -9.241
REMARK INTER:                  -8.473
REMARK INTRA:                  -0.768
REMARK UNBOUND:                -0.634
REMARK SMILES Cc1ccc(-c2cc(COc3cc(C(C)C)ccc3C)on2)cc1
REMARK SMILES IDX 9 1 8 2 6 3 7 4 22 5 21 6 5 7 2 8 3 9 24 10 4 11 23 12 1 13
REMARK SMILES IDX 10 14 11 15 12 16 19 17 13 18 18 19 17 20 20 21 14 22 15 23
REMARK SMILES IDX 16 24
REMARK H PARENT
ROOT
ATOM      1  C   UNL     1       6.996 -25.564  19.225  1.00  0.00     0.307 C 
ENDROOT
BRANCH   1   2
ATOM      2  C   UNL     1       8.192 -25.552  20.099  1.00  0.00     0.174 A 
ATOM      3  C   UNL     1       9.992 -25.784  21.380  1.00  0.00     0.114 A 
ATOM      4  C   UNL     1       9.049 -26.504  20.596  1.00  0.00     0.081 A 
ATOM      5  N   UNL     1       9.702 -24.471  21.344  1.00  0.00    -0.079 NA
ATOM      6  O   UNL     1       8.585 -24.333  20.548  1.00  0.00    -0.357 OA
BRANCH   3   7
ATOM      7  C   UNL     1      11.134 -26.302  22.144  1.00  0.00     0.004 A 
ATOM      8  C   UNL     1      13.347 -27.286  23.608  1.00  0.00    -0.051 A 
ATOM      9  C   UNL     1      13.139 -25.910  23.475  1.00  0.00     0.004 A 
ATOM     10  C   UNL     1      12.433 -28.167  23.025  1.00  0.00     0.004 A 
ATOM     11  C   UNL     1      12.048 -25.426  22.746  1.00  0.00     0.011 A 
ATOM     12  C   UNL     1      11.341 -27.681  22.296  1.00  0.00     0.011 A 
ATOM     13  C   UNL     1      14.498 -27.806  24.417  1.00  0.00     0.044 C 
ENDBRANCH   3   7
ENDBRANCH   1   2
BRANCH   1  14
ATOM     14  O   UNL     1       6.011 -26.373  19.865  1.00  0.00    -0.485 OA
BRANCH  14  15
ATOM     15  C   UNL     1       5.176 -25.762  20.764  1.00  0.00     0.123 A 
ATOM     16  C   UNL     1       4.284 -24.726  20.457  1.00  0.00     0.050 A 
ATOM     17  C   UNL     1       5.253 -26.243  22.082  1.00  0.00    -0.009 A 
ATOM     18  C   UNL     1       3.462 -24.158  21.445  1.00  0.00    -0.042 A 
ATOM     19  C   UNL     1       4.435 -25.679  23.069  1.00  0.00     0.007 A 
ATOM     20  C   UNL     1       3.549 -24.647  22.754  1.00  0.00     0.004 A 
ATOM     21  C   UNL     1       6.199 -27.354  22.444  1.00  0.00     0.048 C 
BRANCH  18  22
ATOM     22  C   UNL     1       2.505 -23.035  21.079  1.00  0.00     0.013 C 
ATOM     23  C   UNL     1       3.254 -21.805  20.559  1.00  0.00     0.012 C 
ATOM     24  C   UNL     1       1.451 -23.500  20.072  1.00  0.00     0.012 C 
ENDBRANCH  18  22
ENDBRANCH  14  15
ENDBRANCH   1  14
TORSDOF 5
ENDMDL
