MODEL 1
REMARK VINA RESULT:    -6.970      0.000      0.000
REMARK INTER + INTRA:          -9.615
REMARK INTER:                  -9.008
REMARK INTRA:                  -0.608
REMARK UNBOUND:                -0.608
REMARK SMILES Cc1ccc(-c2cc(COc3cc(C(C)C)ccc3C)on2)cc1
REMARK SMILES IDX 9 1 8 2 6 3 7 4 22 5 21 6 5 7 2 8 3 9 24 10 4 11 23 12 1 13
REMARK SMILES IDX 10 14 11 15 12 16 19 17 13 18 18 19 17 20 20 21 14 22 15 23
REMARK SMILES IDX 16 24
REMARK H PARENT
ROOT
ATOM      1  C   UNL     1       7.511 -29.180  22.137  1.00  0.00     0.307 C 
ENDROOT
BRANCH   1   2
ATOM      2  C   UNL     1       8.738 -28.353  22.198  1.00  0.00     0.174 A 
ATOM      3  C   UNL     1      10.428 -26.919  22.347  1.00  0.00     0.114 A 
ATOM      4  C   UNL     1       9.015 -27.035  22.466  1.00  0.00     0.081 A 
ATOM      5  N   UNL     1      10.953 -28.115  22.025  1.00  0.00    -0.079 NA
ATOM      6  O   UNL     1       9.901 -29.000  21.933  1.00  0.00    -0.357 OA
BRANCH   3   7
ATOM      7  C   UNL     1      11.268 -25.729  22.529  1.00  0.00     0.004 A 
ATOM      8  C   UNL     1      12.897 -23.443  22.895  1.00  0.00    -0.051 A 
ATOM      9  C   UNL     1      13.414 -24.724  23.104  1.00  0.00     0.004 A 
ATOM     10  C   UNL     1      11.569 -23.310  22.481  1.00  0.00     0.004 A 
ATOM     11  C   UNL     1      12.606 -25.853  22.928  1.00  0.00     0.011 A 
ATOM     12  C   UNL     1      10.761 -24.440  22.306  1.00  0.00     0.011 A 
ATOM     13  C   UNL     1      13.771 -22.235  23.050  1.00  0.00     0.044 C 
ENDBRANCH   3   7
ENDBRANCH   1   2
BRANCH   1  14
ATOM     14  O   UNL     1       7.908 -30.541  22.292  1.00  0.00    -0.485 OA
BRANCH  14  15
ATOM     15  C   UNL     1       7.141 -31.338  23.104  1.00  0.00     0.123 A 
ATOM     16  C   UNL     1       7.122 -31.276  24.503  1.00  0.00     0.050 A 
ATOM     17  C   UNL     1       6.328 -32.271  22.438  1.00  0.00    -0.009 A 
ATOM     18  C   UNL     1       6.302 -32.133  25.257  1.00  0.00    -0.042 A 
ATOM     19  C   UNL     1       5.510 -33.126  23.187  1.00  0.00     0.007 A 
ATOM     20  C   UNL     1       5.497 -33.058  24.581  1.00  0.00     0.004 A 
ATOM     21  C   UNL     1       6.325 -32.361  20.937  1.00  0.00     0.048 C 
BRANCH  18  22
ATOM     22  C   UNL     1       6.305 -32.042  26.774  1.00  0.00     0.013 C 
ATOM     23  C   UNL     1       5.562 -33.220  27.410  1.00  0.00     0.012 C 
ATOM     24  C   UNL     1       7.726 -31.929  27.329  1.00  0.00     0.012 C 
ENDBRANCH  18  22
ENDBRANCH  14  15
ENDBRANCH   1  14
TORSDOF 5
ENDMDL
MODEL 2
REMARK VINA RESULT:    -6.934      3.207      8.534
REMARK INTER + INTRA:          -9.569
REMARK INTER:                  -8.752
REMARK INTRA:                  -0.816
REMARK UNBOUND:                -0.608
REMARK SMILES Cc1ccc(-c2cc(COc3cc(C(C)C)ccc3C)on2)cc1
REMARK SMILES IDX 9 1 8 2 6 3 7 4 22 5 21 6 5 7 2 8 3 9 24 10 4 11 23 12 1 13
REMARK SMILES IDX 10 14 11 15 12 16 19 17 13 18 18 19 17 20 20 21 14 22 15 23
REMARK SMILES IDX 16 24
REMARK H PARENT
ROOT
ATOM      1  C   UNL     1       9.488 -26.583  20.842  1.00  0.00     0.307 C 
ENDROOT
BRANCH   1   2
ATOM      2  C   UNL     1       9.058 -27.823  21.530  1.00  0.00     0.174 A 
ATOM      3  C   UNL     1       8.182 -29.633  22.473  1.00  0.00     0.114 A 
ATOM      4  C   UNL     1       7.871 -28.498  21.674  1.00  0.00     0.081 A 
ATOM      5  N   UNL     1       9.492 -29.622  22.782  1.00  0.00    -0.079 NA
ATOM      6  O   UNL     1      10.029 -28.498  22.195  1.00  0.00    -0.357 OA
BRANCH   3   7
ATOM      7  C   UNL     1       7.287 -30.699  22.938  1.00  0.00     0.004 A 
ATOM      8  C   UNL     1       5.551 -32.755  23.816  1.00  0.00    -0.051 A 
ATOM      9  C   UNL     1       5.936 -32.676  22.475  1.00  0.00     0.004 A 
ATOM     10  C   UNL     1       6.055 -31.816  24.720  1.00  0.00     0.004 A 
ATOM     11  C   UNL     1       6.790 -31.656  22.041  1.00  0.00     0.011 A 
ATOM     12  C   UNL     1       6.909 -30.795  24.285  1.00  0.00     0.011 A 
ATOM     13  C   UNL     1       4.663 -33.868  24.289  1.00  0.00     0.044 C 
ENDBRANCH   3   7
ENDBRANCH   1   2
BRANCH   1  14
ATOM     14  O   UNL     1       8.588 -26.366  19.757  1.00  0.00    -0.485 OA
BRANCH  14  15
ATOM     15  C   UNL     1       7.590 -25.443  19.934  1.00  0.00     0.123 A 
ATOM     16  C   UNL     1       7.659 -24.342  20.797  1.00  0.00     0.050 A 
ATOM     17  C   UNL     1       6.429 -25.658  19.174  1.00  0.00    -0.009 A 
ATOM     18  C   UNL     1       6.584 -23.444  20.916  1.00  0.00    -0.042 A 
ATOM     19  C   UNL     1       5.356 -24.764  19.290  1.00  0.00     0.007 A 
ATOM     20  C   UNL     1       5.433 -23.669  20.152  1.00  0.00     0.004 A 
ATOM     21  C   UNL     1       6.323 -26.830  18.238  1.00  0.00     0.048 C 
BRANCH  18  22
ATOM     22  C   UNL     1       6.691 -22.258  21.861  1.00  0.00     0.013 C 
ATOM     23  C   UNL     1       8.036 -21.541  21.715  1.00  0.00     0.012 C 
ATOM     24  C   UNL     1       5.527 -21.281  21.672  1.00  0.00     0.012 C 
ENDBRANCH  18  22
ENDBRANCH  14  15
ENDBRANCH   1  14
TORSDOF 5
ENDMDL
MODEL 3
REMARK VINA RESULT:    -6.923      4.301      6.468
REMARK INTER + INTRA:          -9.554
REMARK INTER:                  -8.792
REMARK INTRA:                  -0.762
REMARK UNBOUND:                -0.608
REMARK SMILES Cc1ccc(-c2cc(COc3cc(C(C)C)ccc3C)on2)cc1
REMARK SMILES IDX 9 1 8 2 6 3 7 4 22 5 21 6 5 7 2 8 3 9 24 10 4 11 23 12 1 13
REMARK SMILES IDX 10 14 11 15 12 16 19 17 13 18 18 19 17 20 20 21 14 22 15 23
REMARK SMILES IDX 16 24
REMARK H PARENT
ROOT
ATOM      1  C   UNL     1       7.193 -25.921  19.073  1.00  0.00     0.307 C 
ENDROOT
BRANCH   1   2
ATOM      2  C   UNL     1       8.360 -25.839  19.981  1.00  0.00     0.174 A 
ATOM      3  C   UNL     1      10.121 -25.970  21.329  1.00  0.00     0.114 A 
ATOM      4  C   UNL     1       9.210 -26.748  20.563  1.00  0.00     0.081 A 
ATOM      5  N   UNL     1       9.820 -24.665  21.200  1.00  0.00    -0.079 NA
ATOM      6  O   UNL     1       8.727 -24.590  20.363  1.00  0.00    -0.357 OA
BRANCH   3   7
ATOM      7  C   UNL     1      11.244 -26.425  22.158  1.00  0.00     0.004 A 
ATOM      8  C   UNL     1      13.397 -27.319  23.763  1.00  0.00    -0.051 A 
ATOM      9  C   UNL     1      12.568 -28.237  23.113  1.00  0.00     0.004 A 
ATOM     10  C   UNL     1      13.159 -25.953  23.590  1.00  0.00     0.004 A 
ATOM     11  C   UNL     1      11.501 -27.794  22.324  1.00  0.00     0.011 A 
ATOM     12  C   UNL     1      12.090 -25.510  22.801  1.00  0.00     0.011 A 
ATOM     13  C   UNL     1      14.562 -27.792  24.581  1.00  0.00     0.044 C 
ENDBRANCH   3   7
ENDBRANCH   1   2
BRANCH   1  14
ATOM     14  O   UNL     1       6.201 -26.710  19.727  1.00  0.00    -0.485 OA
BRANCH  14  15
ATOM     15  C   UNL     1       5.378 -26.080  20.625  1.00  0.00     0.123 A 
ATOM     16  C   UNL     1       4.505 -25.029  20.314  1.00  0.00     0.050 A 
ATOM     17  C   UNL     1       5.449 -26.556  21.944  1.00  0.00    -0.009 A 
ATOM     18  C   UNL     1       3.696 -24.441  21.301  1.00  0.00    -0.042 A 
ATOM     19  C   UNL     1       4.644 -25.972  22.930  1.00  0.00     0.007 A 
ATOM     20  C   UNL     1       3.776 -24.926  22.612  1.00  0.00     0.004 A 
ATOM     21  C   UNL     1       6.375 -27.683  22.310  1.00  0.00     0.048 C 
BRANCH  18  22
ATOM     22  C   UNL     1       2.759 -23.303  20.931  1.00  0.00     0.013 C 
ATOM     23  C   UNL     1       3.531 -22.082  20.421  1.00  0.00     0.012 C 
ATOM     24  C   UNL     1       1.706 -23.748  19.914  1.00  0.00     0.012 C 
ENDBRANCH  18  22
ENDBRANCH  14  15
ENDBRANCH   1  14
TORSDOF 5
ENDMDL
MODEL 4
REMARK VINA RESULT:    -6.912      1.440      8.742
REMARK INTER + INTRA:          -9.540
REMARK INTER:                  -9.053
REMARK INTRA:                  -0.487
REMARK UNBOUND:                -0.608
REMARK SMILES Cc1ccc(-c2cc(COc3cc(C(C)C)ccc3C)on2)cc1
REMARK SMILES IDX 9 1 8 2 6 3 7 4 22 5 21 6 5 7 2 8 3 9 24 10 4 11 23 12 1 13
REMARK SMILES IDX 10 14 11 15 12 16 19 17 13 18 18 19 17 20 20 21 14 22 15 23
REMARK SMILES IDX 16 24
REMARK H PARENT
ROOT
ATOM      1  C   UNL     1       9.220 -26.942  20.849  1.00  0.00     0.307 C 
ENDROOT
BRANCH   1   2
ATOM      2  C   UNL     1       8.785 -28.163  21.567  1.00  0.00     0.174 A 
ATOM      3  C   UNL     1       7.896 -29.932  22.575  1.00  0.00     0.114 A 
ATOM      4  C   UNL     1       7.580 -28.778  21.806  1.00  0.00     0.081 A 
ATOM      5  N   UNL     1       9.225 -29.990  22.776  1.00  0.00    -0.079 NA
ATOM      6  O   UNL     1       9.771 -28.891  22.149  1.00  0.00    -0.357 OA
BRANCH   3   7
ATOM      7  C   UNL     1       6.988 -30.954  23.108  1.00  0.00     0.004 A 
ATOM      8  C   UNL     1       5.227 -32.926  24.120  1.00  0.00    -0.051 A 
ATOM      9  C   UNL     1       5.579 -32.915  22.768  1.00  0.00     0.004 A 
ATOM     10  C   UNL     1       5.775 -31.960  24.968  1.00  0.00     0.004 A 
ATOM     11  C   UNL     1       6.446 -31.938  22.268  1.00  0.00     0.011 A 
ATOM     12  C   UNL     1       6.642 -30.981  24.467  1.00  0.00     0.011 A 
ATOM     13  C   UNL     1       4.325 -33.993  24.663  1.00  0.00     0.044 C 
ENDBRANCH   3   7
ENDBRANCH   1   2
BRANCH   1  14
ATOM     14  O   UNL     1       9.365 -25.908  21.821  1.00  0.00    -0.485 OA
BRANCH  14  15
ATOM     15  C   UNL     1      10.637 -25.492  22.120  1.00  0.00     0.123 A 
ATOM     16  C   UNL     1      11.747 -26.336  22.255  1.00  0.00     0.050 A 
ATOM     17  C   UNL     1      10.793 -24.108  22.297  1.00  0.00    -0.009 A 
ATOM     18  C   UNL     1      13.018 -25.823  22.564  1.00  0.00    -0.042 A 
ATOM     19  C   UNL     1      12.059 -23.592  22.605  1.00  0.00     0.007 A 
ATOM     20  C   UNL     1      13.159 -24.441  22.737  1.00  0.00     0.004 A 
ATOM     21  C   UNL     1       9.622 -23.174  22.158  1.00  0.00     0.048 C 
BRANCH  18  22
ATOM     22  C   UNL     1      14.202 -26.766  22.703  1.00  0.00     0.013 C 
ATOM     23  C   UNL     1      14.253 -27.402  24.094  1.00  0.00     0.012 C 
ATOM     24  C   UNL     1      14.199 -27.838  21.611  1.00  0.00     0.012 C 
ENDBRANCH  18  22
ENDBRANCH  14  15
ENDBRANCH   1  14
TORSDOF 5
ENDMDL
MODEL 5
REMARK VINA RESULT:    -6.888      1.673      8.628
REMARK INTER + INTRA:          -9.509
REMARK INTER:                  -8.836
REMARK INTRA:                  -0.673
REMARK UNBOUND:                -0.608
REMARK SMILES Cc1ccc(-c2cc(COc3cc(C(C)C)ccc3C)on2)cc1
REMARK SMILES IDX 9 1 8 2 6 3 7 4 22 5 21 6 5 7 2 8 3 9 24 10 4 11 23 12 1 13
REMARK SMILES IDX 10 14 11 15 12 16 19 17 13 18 18 19 17 20 20 21 14 22 15 23
REMARK SMILES IDX 16 24
REMARK H PARENT
ROOT
ATOM      1  C   UNL     1       8.958 -27.385  21.769  1.00  0.00     0.307 C 
ENDROOT
BRANCH   1   2
ATOM      2  C   UNL     1       8.543 -28.621  22.471  1.00  0.00     0.174 A 
ATOM      3  C   UNL     1       7.794 -30.326  23.683  1.00  0.00     0.114 A 
ATOM      4  C   UNL     1       7.773 -28.908  23.572  1.00  0.00     0.081 A 
ATOM      5  N   UNL     1       8.540 -30.845  22.691  1.00  0.00    -0.079 NA
ATOM      6  O   UNL     1       9.002 -29.784  21.943  1.00  0.00    -0.357 OA
BRANCH   3   7
ATOM      7  C   UNL     1       7.137 -31.176  24.683  1.00  0.00     0.004 A 
ATOM      8  C   UNL     1       5.888 -32.817  26.621  1.00  0.00    -0.051 A 
ATOM      9  C   UNL     1       6.836 -31.864  27.003  1.00  0.00     0.004 A 
ATOM     10  C   UNL     1       5.551 -32.931  25.270  1.00  0.00     0.004 A 
ATOM     11  C   UNL     1       7.457 -31.057  26.043  1.00  0.00     0.011 A 
ATOM     12  C   UNL     1       6.173 -32.124  24.310  1.00  0.00     0.011 A 
ATOM     13  C   UNL     1       5.197 -33.659  27.653  1.00  0.00     0.044 C 
ENDBRANCH   3   7
ENDBRANCH   1   2
BRANCH   1  14
ATOM     14  O   UNL     1       9.302 -26.425  22.767  1.00  0.00    -0.485 OA
BRANCH  14  15
ATOM     15  C   UNL     1      10.620 -26.061  22.869  1.00  0.00     0.123 A 
ATOM     16  C   UNL     1      11.709 -26.900  22.602  1.00  0.00     0.050 A 
ATOM     17  C   UNL     1      10.848 -24.735  23.275  1.00  0.00    -0.009 A 
ATOM     18  C   UNL     1      13.030 -26.440  22.732  1.00  0.00    -0.042 A 
ATOM     19  C   UNL     1      12.165 -24.274  23.406  1.00  0.00     0.007 A 
ATOM     20  C   UNL     1      13.244 -25.117  23.137  1.00  0.00     0.004 A 
ATOM     21  C   UNL     1       9.701 -23.808  23.569  1.00  0.00     0.048 C 
BRANCH  18  22
ATOM     22  C   UNL     1      14.190 -27.377  22.434  1.00  0.00     0.013 C 
ATOM     23  C   UNL     1      14.204 -28.575  23.387  1.00  0.00     0.012 C 
ATOM     24  C   UNL     1      14.181 -27.838  20.975  1.00  0.00     0.012 C 
ENDBRANCH  18  22
ENDBRANCH  14  15
ENDBRANCH   1  14
TORSDOF 5
ENDMDL
MODEL 6
REMARK VINA RESULT:    -6.879      1.557      8.862
REMARK INTER + INTRA:          -9.498
REMARK INTER:                  -8.875
REMARK INTRA:                  -0.623
REMARK UNBOUND:                -0.608
REMARK SMILES Cc1ccc(-c2cc(COc3cc(C(C)C)ccc3C)on2)cc1
REMARK SMILES IDX 9 1 8 2 6 3 7 4 22 5 21 6 5 7 2 8 3 9 24 10 4 11 23 12 1 13
REMARK SMILES IDX 10 14 11 15 12 16 19 17 13 18 18 19 17 20 20 21 14 22 15 23
REMARK SMILES IDX 16 24
REMARK H PARENT
ROOT
ATOM      1  C   UNL     1       9.745 -27.944  21.812  1.00  0.00     0.307 C 
ENDROOT
BRANCH   1   2
ATOM      2  C   UNL     1       9.036 -29.071  22.463  1.00  0.00     0.174 A 
ATOM      3  C   UNL     1       7.954 -30.611  23.643  1.00  0.00     0.114 A 
ATOM      4  C   UNL     1       8.466 -29.285  23.694  1.00  0.00     0.081 A 
ATOM      5  N   UNL     1       8.211 -31.147  22.436  1.00  0.00    -0.079 NA
ATOM      6  O   UNL     1       8.883 -30.188  21.709  1.00  0.00    -0.357 OA
BRANCH   3   7
ATOM      7  C   UNL     1       7.243 -31.359  24.686  1.00  0.00     0.004 A 
ATOM      8  C   UNL     1       5.855 -32.802  26.687  1.00  0.00    -0.051 A 
ATOM      9  C   UNL     1       5.556 -32.996  25.335  1.00  0.00     0.004 A 
ATOM     10  C   UNL     1       6.865 -31.901  27.032  1.00  0.00     0.004 A 
ATOM     11  C   UNL     1       6.239 -32.278  24.348  1.00  0.00     0.011 A 
ATOM     12  C   UNL     1       7.548 -31.183  26.043  1.00  0.00     0.011 A 
ATOM     13  C   UNL     1       5.147 -33.596  27.744  1.00  0.00     0.044 C 
ENDBRANCH   3   7
ENDBRANCH   1   2
BRANCH   1  14
ATOM     14  O   UNL     1      11.126 -28.061  22.146  1.00  0.00    -0.485 OA
BRANCH  14  15
ATOM     15  C   UNL     1      11.803 -26.911  22.459  1.00  0.00     0.123 A 
ATOM     16  C   UNL     1      11.216 -25.647  22.604  1.00  0.00     0.050 A 
ATOM     17  C   UNL     1      13.189 -27.057  22.640  1.00  0.00    -0.009 A 
ATOM     18  C   UNL     1      11.989 -24.519  22.928  1.00  0.00    -0.042 A 
ATOM     19  C   UNL     1      13.962 -25.935  22.964  1.00  0.00     0.007 A 
ATOM     20  C   UNL     1      13.368 -24.680  23.106  1.00  0.00     0.004 A 
ATOM     21  C   UNL     1      13.850 -28.400  22.493  1.00  0.00     0.048 C 
BRANCH  18  22
ATOM     22  C   UNL     1      11.321 -23.162  23.077  1.00  0.00     0.013 C 
ATOM     23  C   UNL     1      10.127 -23.225  24.034  1.00  0.00     0.012 C 
ATOM     24  C   UNL     1      12.319 -22.089  23.518  1.00  0.00     0.012 C 
ENDBRANCH  18  22
ENDBRANCH  14  15
ENDBRANCH   1  14
TORSDOF 5
ENDMDL
MODEL 7
REMARK VINA RESULT:    -6.686      5.410      7.257
REMARK INTER + INTRA:          -9.248
REMARK INTER:                  -8.624
REMARK INTRA:                  -0.624
REMARK UNBOUND:                -0.608
REMARK SMILES Cc1ccc(-c2cc(COc3cc(C(C)C)ccc3C)on2)cc1
REMARK SMILES IDX 9 1 8 2 6 3 7 4 22 5 21 6 5 7 2 8 3 9 24 10 4 11 23 12 1 13
REMARK SMILES IDX 10 14 11 15 12 16 19 17 13 18 18 19 17 20 20 21 14 22 15 23
REMARK SMILES IDX 16 24
REMARK H PARENT
ROOT
ATOM      1  C   UNL     1       8.085 -21.753  21.605  1.00  0.00     0.307 C 
ENDROOT
BRANCH   1   2
ATOM      2  C   UNL     1       9.259 -22.428  22.205  1.00  0.00     0.174 A 
ATOM      3  C   UNL     1      10.931 -23.654  23.004  1.00  0.00     0.114 A 
ATOM      4  C   UNL     1       9.734 -23.716  22.238  1.00  0.00     0.081 A 
ATOM      5  N   UNL     1      11.147 -22.386  23.401  1.00  0.00    -0.079 NA
ATOM      6  O   UNL     1      10.107 -21.631  22.903  1.00  0.00    -0.357 OA
BRANCH   3   7
ATOM      7  C   UNL     1      11.850 -24.742  23.358  1.00  0.00     0.004 A 
ATOM      8  C   UNL     1      13.630 -26.841  24.021  1.00  0.00    -0.051 A 
ATOM      9  C   UNL     1      13.993 -25.873  23.081  1.00  0.00     0.004 A 
ATOM     10  C   UNL     1      12.383 -26.743  24.644  1.00  0.00     0.004 A 
ATOM     11  C   UNL     1      13.110 -24.839  22.751  1.00  0.00     0.011 A 
ATOM     12  C   UNL     1      11.500 -25.708  24.312  1.00  0.00     0.011 A 
ATOM     13  C   UNL     1      14.588 -27.930  24.401  1.00  0.00     0.044 C 
ENDBRANCH   3   7
ENDBRANCH   1   2
BRANCH   1  14
ATOM     14  O   UNL     1       6.921 -22.438  22.065  1.00  0.00    -0.485 OA
BRANCH  14  15
ATOM     15  C   UNL     1       6.275 -23.259  21.177  1.00  0.00     0.123 A 
ATOM     16  C   UNL     1       6.850 -24.370  20.547  1.00  0.00     0.050 A 
ATOM     17  C   UNL     1       4.938 -22.923  20.908  1.00  0.00    -0.009 A 
ATOM     18  C   UNL     1       6.111 -25.159  19.648  1.00  0.00    -0.042 A 
ATOM     19  C   UNL     1       4.199 -23.707  20.013  1.00  0.00     0.007 A 
ATOM     20  C   UNL     1       4.780 -24.813  19.390  1.00  0.00     0.004 A 
ATOM     21  C   UNL     1       4.292 -21.737  21.569  1.00  0.00     0.048 C 
BRANCH  18  22
ATOM     22  C   UNL     1       6.764 -26.358  18.981  1.00  0.00     0.013 C 
ATOM     23  C   UNL     1       8.286 -26.339  19.153  1.00  0.00     0.012 C 
ATOM     24  C   UNL     1       6.173 -27.676  19.488  1.00  0.00     0.012 C 
ENDBRANCH  18  22
ENDBRANCH  14  15
ENDBRANCH   1  14
TORSDOF 5
ENDMDL
MODEL 8
REMARK VINA RESULT:    -6.521      3.038      5.743
REMARK INTER + INTRA:          -9.035
REMARK INTER:                  -8.273
REMARK INTRA:                  -0.762
REMARK UNBOUND:                -0.608
REMARK SMILES Cc1ccc(-c2cc(COc3cc(C(C)C)ccc3C)on2)cc1
REMARK SMILES IDX 9 1 8 2 6 3 7 4 22 5 21 6 5 7 2 8 3 9 24 10 4 11 23 12 1 13
REMARK SMILES IDX 10 14 11 15 12 16 19 17 13 18 18 19 17 20 20 21 14 22 15 23
REMARK SMILES IDX 16 24
REMARK H PARENT
ROOT
ATOM      1  C   UNL     1      11.287 -27.434  21.999  1.00  0.00     0.307 C 
ENDROOT
BRANCH   1   2
ATOM      2  C   UNL     1      11.934 -26.156  22.378  1.00  0.00     0.174 A 
ATOM      3  C   UNL     1      12.675 -24.133  22.921  1.00  0.00     0.114 A 
ATOM      4  C   UNL     1      11.512 -24.859  22.544  1.00  0.00     0.081 A 
ATOM      5  N   UNL     1      13.730 -24.967  22.974  1.00  0.00    -0.079 NA
ATOM      6  O   UNL     1      13.264 -26.219  22.637  1.00  0.00    -0.357 OA
BRANCH   3   7
ATOM      7  C   UNL     1      12.805 -22.703  23.224  1.00  0.00     0.004 A 
ATOM      8  C   UNL     1      13.036 -19.942  23.802  1.00  0.00    -0.051 A 
ATOM      9  C   UNL     1      11.806 -20.593  23.930  1.00  0.00     0.004 A 
ATOM     10  C   UNL     1      14.154 -20.681  23.406  1.00  0.00     0.004 A 
ATOM     11  C   UNL     1      11.692 -21.957  23.639  1.00  0.00     0.011 A 
ATOM     12  C   UNL     1      14.039 -22.046  23.114  1.00  0.00     0.011 A 
ATOM     13  C   UNL     1      13.167 -18.488  24.146  1.00  0.00     0.044 C 
ENDBRANCH   3   7
ENDBRANCH   1   2
BRANCH   1  14
ATOM     14  O   UNL     1      10.020 -27.478  22.652  1.00  0.00    -0.485 OA
BRANCH  14  15
ATOM     15  C   UNL     1       8.900 -27.531  21.862  1.00  0.00     0.123 A 
ATOM     16  C   UNL     1       8.581 -26.607  20.860  1.00  0.00     0.050 A 
ATOM     17  C   UNL     1       8.037 -28.611  22.112  1.00  0.00    -0.009 A 
ATOM     18  C   UNL     1       7.409 -26.740  20.096  1.00  0.00    -0.042 A 
ATOM     19  C   UNL     1       6.868 -28.746  21.353  1.00  0.00     0.007 A 
ATOM     20  C   UNL     1       6.557 -27.821  20.355  1.00  0.00     0.004 A 
ATOM     21  C   UNL     1       8.352 -29.621  23.181  1.00  0.00     0.048 C 
BRANCH  18  22
ATOM     22  C   UNL     1       7.090 -25.720  19.015  1.00  0.00     0.013 C 
ATOM     23  C   UNL     1       6.323 -26.354  17.851  1.00  0.00     0.012 C 
ATOM     24  C   UNL     1       6.329 -24.518  19.581  1.00  0.00     0.012 C 
ENDBRANCH  18  22
ENDBRANCH  14  15
ENDBRANCH   1  14
TORSDOF 5
ENDMDL
