MODEL 1
REMARK VINA RESULT:    -4.747      0.000      0.000
REMARK INTER + INTRA:          -5.263
REMARK INTER:                  -5.163
REMARK INTRA:                  -0.100
REMARK UNBOUND:                -0.100
REMARK SMILES Cc1ccc(C(C)C)cc1O
REMARK SMILES IDX 1 1 2 2 3 3 4 4 5 5 9 6 10 7 11 8 6 10 7 11 8 12
REMARK H PARENT 11 9
ROOT
ATOM      1  C   UNL     1      10.199 -23.098  24.194  1.00  0.00     0.048 C 
ATOM      2  C   UNL     1      11.244 -24.136  23.906  1.00  0.00    -0.009 A 
ATOM      3  C   UNL     1      12.415 -23.766  23.230  1.00  0.00     0.007 A 
ATOM      4  C   UNL     1      13.410 -24.707  22.946  1.00  0.00     0.004 A 
ATOM      5  C   UNL     1      13.260 -26.046  23.329  1.00  0.00    -0.042 A 
ATOM      6  C   UNL     1      12.089 -26.417  24.004  1.00  0.00     0.050 A 
ATOM      7  C   UNL     1      11.099 -25.474  24.287  1.00  0.00     0.118 A 
ENDROOT
BRANCH   7   8
ATOM      8  O   UNL     1       9.999 -25.942  24.948  1.00  0.00    -0.508 OA
ATOM      9  H   UNL     1       9.220 -25.849  24.378  1.00  0.00     0.293 HD
ENDBRANCH   7   8
BRANCH   5  10
ATOM     10  C   UNL     1      14.350 -27.053  23.010  1.00  0.00     0.013 C 
ATOM     11  C   UNL     1      14.499 -28.091  24.124  1.00  0.00     0.012 C 
ATOM     12  C   UNL     1      14.111 -27.732  21.659  1.00  0.00     0.012 C 
ENDBRANCH   5  10
TORSDOF 2
ENDMDL
MODEL 2
REMARK VINA RESULT:    -4.731      2.034      4.516
REMARK INTER + INTRA:          -5.246
REMARK INTER:                  -5.150
REMARK INTRA:                  -0.095
REMARK UNBOUND:                -0.100
REMARK SMILES Cc1ccc(C(C)C)cc1O
REMARK SMILES IDX 1 1 2 2 3 3 4 4 5 5 9 6 10 7 11 8 6 10 7 11 8 12
REMARK H PARENT 11 9
ROOT
ATOM      1  C   UNL     1      14.538 -28.055  24.248  1.00  0.00     0.048 C 
ATOM      2  C   UNL     1      13.588 -26.930  23.954  1.00  0.00    -0.009 A 
ATOM      3  C   UNL     1      12.346 -26.891  24.603  1.00  0.00     0.007 A 
ATOM      4  C   UNL     1      11.436 -25.858  24.352  1.00  0.00     0.004 A 
ATOM      5  C   UNL     1      11.744 -24.835  23.446  1.00  0.00    -0.042 A 
ATOM      6  C   UNL     1      12.986 -24.875  22.798  1.00  0.00     0.050 A 
ATOM      7  C   UNL     1      13.891 -25.907  23.050  1.00  0.00     0.118 A 
ENDROOT
BRANCH   7   8
ATOM      8  O   UNL     1      15.071 -25.849  22.364  1.00  0.00    -0.508 OA
ATOM      9  H   UNL     1      14.981 -25.229  21.625  1.00  0.00     0.293 HD
ENDBRANCH   7   8
BRANCH   5  10
ATOM     10  C   UNL     1      10.744 -23.724  23.188  1.00  0.00     0.013 C 
ATOM     11  C   UNL     1      11.354 -22.346  23.455  1.00  0.00     0.012 C 
ATOM     12  C   UNL     1      10.170 -23.801  21.771  1.00  0.00     0.012 C 
ENDBRANCH   5  10
TORSDOF 2
ENDMDL
MODEL 3
REMARK VINA RESULT:    -4.660      1.601      2.157
REMARK INTER + INTRA:          -5.168
REMARK INTER:                  -5.043
REMARK INTRA:                  -0.125
REMARK UNBOUND:                -0.100
REMARK SMILES Cc1ccc(C(C)C)cc1O
REMARK SMILES IDX 1 1 2 2 3 3 4 4 5 5 9 6 10 7 11 8 6 10 7 11 8 12
REMARK H PARENT 11 9
ROOT
ATOM      1  C   UNL     1      10.327 -22.730  23.991  1.00  0.00     0.048 C 
ATOM      2  C   UNL     1      11.345 -23.814  23.787  1.00  0.00    -0.009 A 
ATOM      3  C   UNL     1      11.056 -25.119  24.210  1.00  0.00     0.007 A 
ATOM      4  C   UNL     1      11.981 -26.153  24.036  1.00  0.00     0.004 A 
ATOM      5  C   UNL     1      13.223 -25.910  23.434  1.00  0.00    -0.042 A 
ATOM      6  C   UNL     1      13.512 -24.606  23.011  1.00  0.00     0.050 A 
ATOM      7  C   UNL     1      12.585 -23.577  23.186  1.00  0.00     0.118 A 
ENDROOT
BRANCH   7   8
ATOM      8  O   UNL     1      12.969 -22.344  22.739  1.00  0.00    -0.508 OA
ATOM      9  H   UNL     1      13.319 -22.425  21.838  1.00  0.00     0.293 HD
ENDBRANCH   7   8
BRANCH   5  10
ATOM     10  C   UNL     1      14.213 -27.046  23.255  1.00  0.00     0.013 C 
ATOM     11  C   UNL     1      14.490 -27.763  24.578  1.00  0.00     0.012 C 
ATOM     12  C   UNL     1      13.747 -28.036  22.184  1.00  0.00     0.012 C 
ENDBRANCH   5  10
TORSDOF 2
ENDMDL
MODEL 4
REMARK VINA RESULT:    -4.608      1.743      4.275
REMARK INTER + INTRA:          -5.112
REMARK INTER:                  -4.987
REMARK INTRA:                  -0.125
REMARK UNBOUND:                -0.100
REMARK SMILES Cc1ccc(C(C)C)cc1O
REMARK SMILES IDX 1 1 2 2 3 3 4 4 5 5 9 6 10 7 11 8 6 10 7 11 8 12
REMARK H PARENT 11 9
ROOT
ATOM      1  C   UNL     1      14.221 -28.465  22.190  1.00  0.00     0.048 C 
ATOM      2  C   UNL     1      13.477 -27.178  22.395  1.00  0.00    -0.009 A 
ATOM      3  C   UNL     1      14.174 -26.039  22.822  1.00  0.00     0.007 A 
ATOM      4  C   UNL     1      13.512 -24.824  23.023  1.00  0.00     0.004 A 
ATOM      5  C   UNL     1      12.133 -24.714  22.804  1.00  0.00    -0.042 A 
ATOM      6  C   UNL     1      11.436 -25.852  22.377  1.00  0.00     0.050 A 
ATOM      7  C   UNL     1      12.100 -27.063  22.177  1.00  0.00     0.118 A 
ENDROOT
BRANCH   7   8
ATOM      8  O   UNL     1      11.325 -28.109  21.761  1.00  0.00    -0.508 OA
ATOM      9  H   UNL     1      11.239 -28.079  20.796  1.00  0.00     0.293 HD
ENDBRANCH   7   8
BRANCH   5  10
ATOM     10  C   UNL     1      11.433 -23.386  23.028  1.00  0.00     0.013 C 
ATOM     11  C   UNL     1      10.358 -23.494  24.113  1.00  0.00     0.012 C 
ATOM     12  C   UNL     1      12.430 -22.272  23.357  1.00  0.00     0.012 C 
ENDBRANCH   5  10
TORSDOF 2
ENDMDL
MODEL 5
REMARK VINA RESULT:    -4.591      2.543      3.288
REMARK INTER + INTRA:          -5.094
REMARK INTER:                  -4.989
REMARK INTRA:                  -0.105
REMARK UNBOUND:                -0.100
REMARK SMILES Cc1ccc(C(C)C)cc1O
REMARK SMILES IDX 1 1 2 2 3 3 4 4 5 5 9 6 10 7 11 8 6 10 7 11 8 12
REMARK H PARENT 11 9
ROOT
ATOM      1  C   UNL     1       8.127 -28.178  23.623  1.00  0.00     0.048 C 
ATOM      2  C   UNL     1       9.593 -27.857  23.622  1.00  0.00    -0.009 A 
ATOM      3  C   UNL     1      10.179 -27.314  24.774  1.00  0.00     0.007 A 
ATOM      4  C   UNL     1      11.543 -27.003  24.809  1.00  0.00     0.004 A 
ATOM      5  C   UNL     1      12.357 -27.225  23.691  1.00  0.00    -0.042 A 
ATOM      6  C   UNL     1      11.771 -27.767  22.539  1.00  0.00     0.050 A 
ATOM      7  C   UNL     1      10.410 -28.076  22.509  1.00  0.00     0.118 A 
ENDROOT
BRANCH   7   8
ATOM      8  O   UNL     1       9.941 -28.599  21.336  1.00  0.00    -0.508 OA
ATOM      9  H   UNL     1      10.481 -29.365  21.090  1.00  0.00     0.293 HD
ENDBRANCH   7   8
BRANCH   5  10
ATOM     10  C   UNL     1      13.834 -26.880  23.748  1.00  0.00     0.013 C 
ATOM     11  C   UNL     1      14.632 -27.949  24.498  1.00  0.00     0.012 C 
ATOM     12  C   UNL     1      14.412 -26.648  22.351  1.00  0.00     0.012 C 
ENDBRANCH   5  10
TORSDOF 2
ENDMDL
MODEL 6
REMARK VINA RESULT:    -4.537      3.109      4.384
REMARK INTER + INTRA:          -5.035
REMARK INTER:                  -4.931
REMARK INTRA:                  -0.104
REMARK UNBOUND:                -0.100
REMARK SMILES Cc1ccc(C(C)C)cc1O
REMARK SMILES IDX 1 1 2 2 3 3 4 4 5 5 9 6 10 7 11 8 6 10 7 11 8 12
REMARK H PARENT 11 9
ROOT
ATOM      1  C   UNL     1      13.814 -19.454  24.364  1.00  0.00     0.048 C 
ATOM      2  C   UNL     1      13.244 -20.797  24.012  1.00  0.00    -0.009 A 
ATOM      3  C   UNL     1      11.887 -21.054  24.253  1.00  0.00     0.007 A 
ATOM      4  C   UNL     1      11.322 -22.294  23.937  1.00  0.00     0.004 A 
ATOM      5  C   UNL     1      12.101 -23.313  23.373  1.00  0.00    -0.042 A 
ATOM      6  C   UNL     1      13.457 -23.056  23.134  1.00  0.00     0.050 A 
ATOM      7  C   UNL     1      14.016 -21.817  23.449  1.00  0.00     0.118 A 
ENDROOT
BRANCH   7   8
ATOM      8  O   UNL     1      15.348 -21.674  23.175  1.00  0.00    -0.508 OA
ATOM      9  H   UNL     1      15.739 -21.053  23.808  1.00  0.00     0.293 HD
ENDBRANCH   7   8
BRANCH   5  10
ATOM     10  C   UNL     1      11.470 -24.652  23.039  1.00  0.00     0.013 C 
ATOM     11  C   UNL     1      10.693 -24.594  21.722  1.00  0.00     0.012 C 
ATOM     12  C   UNL     1      12.511 -25.773  23.009  1.00  0.00     0.012 C 
ENDBRANCH   5  10
TORSDOF 2
ENDMDL
MODEL 7
REMARK VINA RESULT:    -4.502      2.710      3.111
REMARK INTER + INTRA:          -4.996
REMARK INTER:                  -4.871
REMARK INTRA:                  -0.125
REMARK UNBOUND:                -0.100
REMARK SMILES Cc1ccc(C(C)C)cc1O
REMARK SMILES IDX 1 1 2 2 3 3 4 4 5 5 9 6 10 7 11 8 6 10 7 11 8 12
REMARK H PARENT 11 9
ROOT
ATOM      1  C   UNL     1       8.201 -25.653  20.686  1.00  0.00     0.048 C 
ATOM      2  C   UNL     1       9.560 -25.732  21.317  1.00  0.00    -0.009 A 
ATOM      3  C   UNL     1      10.096 -26.985  21.646  1.00  0.00     0.007 A 
ATOM      4  C   UNL     1      11.359 -27.096  22.235  1.00  0.00     0.004 A 
ATOM      5  C   UNL     1      12.123 -25.955  22.513  1.00  0.00    -0.042 A 
ATOM      6  C   UNL     1      11.587 -24.702  22.185  1.00  0.00     0.050 A 
ATOM      7  C   UNL     1      10.326 -24.596  21.596  1.00  0.00     0.118 A 
ENDROOT
BRANCH   7   8
ATOM      8  O   UNL     1       9.900 -23.328  21.318  1.00  0.00    -0.508 OA
ATOM      9  H   UNL     1       9.817 -23.222  20.358  1.00  0.00     0.293 HD
ENDBRANCH   7   8
BRANCH   5  10
ATOM     10  C   UNL     1      13.491 -26.095  23.153  1.00  0.00     0.013 C 
ATOM     11  C   UNL     1      13.440 -26.985  24.398  1.00  0.00     0.012 C 
ATOM     12  C   UNL     1      14.529 -26.613  22.155  1.00  0.00     0.012 C 
ENDBRANCH   5  10
TORSDOF 2
ENDMDL
MODEL 8
REMARK VINA RESULT:    -4.435      2.127      2.590
REMARK INTER + INTRA:          -4.923
REMARK INTER:                  -4.799
REMARK INTRA:                  -0.125
REMARK UNBOUND:                -0.100
REMARK SMILES Cc1ccc(C(C)C)cc1O
REMARK SMILES IDX 1 1 2 2 3 3 4 4 5 5 9 6 10 7 11 8 6 10 7 11 8 12
REMARK H PARENT 11 9
ROOT
ATOM      1  C   UNL     1      12.615 -21.924  22.771  1.00  0.00     0.048 C 
ATOM      2  C   UNL     1      12.433 -23.408  22.638  1.00  0.00    -0.009 A 
ATOM      3  C   UNL     1      13.398 -24.271  23.179  1.00  0.00     0.007 A 
ATOM      4  C   UNL     1      13.260 -25.659  23.073  1.00  0.00     0.004 A 
ATOM      5  C   UNL     1      12.155 -26.223  22.424  1.00  0.00    -0.042 A 
ATOM      6  C   UNL     1      11.192 -25.360  21.883  1.00  0.00     0.050 A 
ATOM      7  C   UNL     1      11.332 -23.976  21.991  1.00  0.00     0.118 A 
ENDROOT
BRANCH   7   8
ATOM      8  O   UNL     1      10.336 -23.228  21.429  1.00  0.00    -0.508 OA
ATOM      9  H   UNL     1      10.608 -22.298  21.406  1.00  0.00     0.293 HD
ENDBRANCH   7   8
BRANCH   5  10
ATOM     10  C   UNL     1      12.025 -27.731  22.319  1.00  0.00     0.013 C 
ATOM     11  C   UNL     1      13.039 -28.446  23.215  1.00  0.00     0.012 C 
ATOM     12  C   UNL     1      10.600 -28.196  22.629  1.00  0.00     0.012 C 
ENDBRANCH   5  10
TORSDOF 2
ENDMDL
