MODEL 1
REMARK VINA RESULT:    -5.451      0.000      0.000
REMARK INTER + INTRA:          -6.993
REMARK INTER:                  -6.407
REMARK INTRA:                  -0.586
REMARK UNBOUND:                -0.586
REMARK SMILES C#CCOc1cc(C(C)C)ccc1C
REMARK SMILES IDX 5 1 6 2 7 3 11 4 12 5 13 6 14 7 4 8 3 9 2 10 1 11 8 12 9 13
REMARK SMILES IDX 10 14
REMARK H PARENT
ROOT
ATOM      1  C   UNL     1      12.766 -23.344  23.006  1.00  0.00     0.123 A 
ATOM      2  C   UNL     1      13.628 -24.436  22.852  1.00  0.00     0.050 A 
ATOM      3  C   UNL     1      13.274 -25.715  23.320  1.00  0.00    -0.042 A 
ATOM      4  C   UNL     1      12.035 -25.879  23.950  1.00  0.00     0.004 A 
ATOM      5  C   UNL     1      11.170 -24.796  24.108  1.00  0.00     0.007 A 
ATOM      6  C   UNL     1      11.525 -23.524  23.640  1.00  0.00    -0.009 A 
ATOM      7  C   UNL     1      10.576 -22.371  23.821  1.00  0.00     0.048 C 
ENDROOT
BRANCH   1   8
ATOM      8  O   UNL     1      13.029 -22.067  22.581  1.00  0.00    -0.481 OA
BRANCH   8   9
ATOM      9  C   UNL     1      14.200 -21.429  23.084  1.00  0.00     0.318 C 
ATOM     10  C   UNL     1      13.834 -20.616  24.253  1.00  0.00    -0.065 C 
ATOM     11  C   UNL     1      13.535 -19.951  25.209  1.00  0.00     0.007 C 
ENDBRANCH   8   9
ENDBRANCH   1   8
BRANCH   3  12
ATOM     12  C   UNL     1      14.233 -26.879  23.137  1.00  0.00     0.013 C 
ATOM     13  C   UNL     1      13.804 -27.785  21.980  1.00  0.00     0.012 C 
ATOM     14  C   UNL     1      14.395 -27.683  24.429  1.00  0.00     0.012 C 
ENDBRANCH   3  12
TORSDOF 3
ENDMDL
MODEL 2
REMARK VINA RESULT:    -5.091      3.097      4.771
REMARK INTER + INTRA:          -6.570
REMARK INTER:                  -6.150
REMARK INTRA:                  -0.420
REMARK UNBOUND:                -0.586
REMARK SMILES C#CCOc1cc(C(C)C)ccc1C
REMARK SMILES IDX 5 1 6 2 7 3 11 4 12 5 13 6 14 7 4 8 3 9 2 10 1 11 8 12 9 13
REMARK SMILES IDX 10 14
REMARK H PARENT
ROOT
ATOM      1  C   UNL     1      10.640 -25.495  22.138  1.00  0.00     0.123 A 
ATOM      2  C   UNL     1      11.726 -26.356  22.336  1.00  0.00     0.050 A 
ATOM      3  C   UNL     1      12.998 -25.858  22.673  1.00  0.00    -0.042 A 
ATOM      4  C   UNL     1      13.162 -24.474  22.807  1.00  0.00     0.004 A 
ATOM      5  C   UNL     1      12.085 -23.609  22.612  1.00  0.00     0.007 A 
ATOM      6  C   UNL     1      10.819 -24.108  22.277  1.00  0.00    -0.009 A 
ATOM      7  C   UNL     1       9.673 -23.158  22.072  1.00  0.00     0.048 C 
ENDROOT
BRANCH   1   8
ATOM      8  O   UNL     1       9.369 -25.893  21.809  1.00  0.00    -0.481 OA
BRANCH   8   9
ATOM      9  C   UNL     1       9.230 -26.975  20.892  1.00  0.00     0.318 C 
ATOM     10  C   UNL     1       8.510 -26.501  19.701  1.00  0.00    -0.065 C 
ATOM     11  C   UNL     1       7.921 -26.113  18.728  1.00  0.00     0.007 C 
ENDBRANCH   8   9
ENDBRANCH   1   8
BRANCH   3  12
ATOM     12  C   UNL     1      14.155 -26.819  22.880  1.00  0.00     0.013 C 
ATOM     13  C   UNL     1      14.163 -27.927  21.823  1.00  0.00     0.012 C 
ATOM     14  C   UNL     1      14.150 -27.413  24.291  1.00  0.00     0.012 C 
ENDBRANCH   3  12
TORSDOF 3
ENDMDL
MODEL 3
REMARK VINA RESULT:    -5.091      2.491      5.130
REMARK INTER + INTRA:          -6.570
REMARK INTER:                  -5.957
REMARK INTRA:                  -0.612
REMARK UNBOUND:                -0.586
REMARK SMILES C#CCOc1cc(C(C)C)ccc1C
REMARK SMILES IDX 5 1 6 2 7 3 11 4 12 5 13 6 14 7 4 8 3 9 2 10 1 11 8 12 9 13
REMARK SMILES IDX 10 14
REMARK H PARENT
ROOT
ATOM      1  C   UNL     1      12.512 -26.266  24.257  1.00  0.00     0.123 A 
ATOM      2  C   UNL     1      11.419 -27.013  24.713  1.00  0.00     0.050 A 
ATOM      3  C   UNL     1      10.100 -26.564  24.521  1.00  0.00    -0.042 A 
ATOM      4  C   UNL     1       9.895 -25.346  23.861  1.00  0.00     0.004 A 
ATOM      5  C   UNL     1      10.978 -24.596  23.404  1.00  0.00     0.007 A 
ATOM      6  C   UNL     1      12.291 -25.046  23.596  1.00  0.00    -0.009 A 
ATOM      7  C   UNL     1      13.444 -24.221  23.094  1.00  0.00     0.048 C 
ENDROOT
BRANCH   1   8
ATOM      8  O   UNL     1      13.827 -26.627  24.400  1.00  0.00    -0.481 OA
BRANCH   8   9
ATOM      9  C   UNL     1      14.218 -27.912  23.924  1.00  0.00     0.318 C 
ATOM     10  C   UNL     1      14.203 -27.899  22.453  1.00  0.00    -0.065 C 
ATOM     11  C   UNL     1      14.191 -27.889  21.252  1.00  0.00     0.007 C 
ENDBRANCH   8   9
ENDBRANCH   1   8
BRANCH   3  12
ATOM     12  C   UNL     1       8.936 -27.398  25.028  1.00  0.00     0.013 C 
ATOM     13  C   UNL     1       9.106 -27.761  26.506  1.00  0.00     0.012 C 
ATOM     14  C   UNL     1       8.730 -28.654  24.179  1.00  0.00     0.012 C 
ENDBRANCH   3  12
TORSDOF 3
ENDMDL
MODEL 4
REMARK VINA RESULT:    -4.830      1.361      5.021
REMARK INTER + INTRA:          -6.263
REMARK INTER:                  -5.872
REMARK INTRA:                  -0.391
REMARK UNBOUND:                -0.586
REMARK SMILES C#CCOc1cc(C(C)C)ccc1C
REMARK SMILES IDX 5 1 6 2 7 3 11 4 12 5 13 6 14 7 4 8 3 9 2 10 1 11 8 12 9 13
REMARK SMILES IDX 10 14
REMARK H PARENT
ROOT
ATOM      1  C   UNL     1      12.383 -24.379  22.945  1.00  0.00     0.123 A 
ATOM      2  C   UNL     1      13.085 -23.172  22.854  1.00  0.00     0.050 A 
ATOM      3  C   UNL     1      12.555 -21.979  23.379  1.00  0.00    -0.042 A 
ATOM      4  C   UNL     1      11.299 -22.020  23.999  1.00  0.00     0.004 A 
ATOM      5  C   UNL     1      10.593 -23.218  24.093  1.00  0.00     0.007 A 
ATOM      6  C   UNL     1      11.125 -24.405  23.570  1.00  0.00    -0.009 A 
ATOM      7  C   UNL     1      10.346 -25.686  23.685  1.00  0.00     0.048 C 
ENDROOT
BRANCH   1   8
ATOM      8  O   UNL     1      12.824 -25.585  22.463  1.00  0.00    -0.481 OA
BRANCH   8   9
ATOM      9  C   UNL     1      14.173 -25.955  22.737  1.00  0.00     0.318 C 
ATOM     10  C   UNL     1      14.226 -27.401  23.001  1.00  0.00    -0.065 C 
ATOM     11  C   UNL     1      14.269 -28.582  23.216  1.00  0.00     0.007 C 
ENDBRANCH   8   9
ENDBRANCH   1   8
BRANCH   3  12
ATOM     12  C   UNL     1      13.342 -20.686  23.263  1.00  0.00     0.013 C 
ATOM     13  C   UNL     1      14.579 -20.858  22.377  1.00  0.00     0.012 C 
ATOM     14  C   UNL     1      13.728 -20.136  24.638  1.00  0.00     0.012 C 
ENDBRANCH   3  12
TORSDOF 3
ENDMDL
MODEL 5
REMARK VINA RESULT:    -4.759      2.113      5.236
REMARK INTER + INTRA:          -6.179
REMARK INTER:                  -5.565
REMARK INTRA:                  -0.614
REMARK UNBOUND:                -0.586
REMARK SMILES C#CCOc1cc(C(C)C)ccc1C
REMARK SMILES IDX 5 1 6 2 7 3 11 4 12 5 13 6 14 7 4 8 3 9 2 10 1 11 8 12 9 13
REMARK SMILES IDX 10 14
REMARK H PARENT
ROOT
ATOM      1  C   UNL     1      12.089 -26.140  23.053  1.00  0.00     0.123 A 
ATOM      2  C   UNL     1      12.527 -24.825  23.249  1.00  0.00     0.050 A 
ATOM      3  C   UNL     1      11.846 -23.737  22.673  1.00  0.00    -0.042 A 
ATOM      4  C   UNL     1      10.712 -23.994  21.891  1.00  0.00     0.004 A 
ATOM      5  C   UNL     1      10.269 -25.301  21.691  1.00  0.00     0.007 A 
ATOM      6  C   UNL     1      10.950 -26.382  22.267  1.00  0.00    -0.009 A 
ATOM      7  C   UNL     1      10.454 -27.783  22.039  1.00  0.00     0.048 C 
ENDROOT
BRANCH   1   8
ATOM      8  O   UNL     1      12.690 -27.256  23.576  1.00  0.00    -0.481 OA
BRANCH   8   9
ATOM      9  C   UNL     1      14.078 -27.447  23.310  1.00  0.00     0.318 C 
ATOM     10  C   UNL     1      14.249 -27.773  21.887  1.00  0.00    -0.065 C 
ATOM     11  C   UNL     1      14.389 -28.039  20.723  1.00  0.00     0.007 C 
ENDBRANCH   8   9
ENDBRANCH   1   8
BRANCH   3  12
ATOM     12  C   UNL     1      12.348 -22.322  22.904  1.00  0.00     0.013 C 
ATOM     13  C   UNL     1      13.852 -22.298  23.186  1.00  0.00     0.012 C 
ATOM     14  C   UNL     1      11.571 -21.625  24.023  1.00  0.00     0.012 C 
ENDBRANCH   3  12
TORSDOF 3
ENDMDL
MODEL 6
REMARK VINA RESULT:    -4.735      3.079      4.960
REMARK INTER + INTRA:          -6.151
REMARK INTER:                  -5.750
REMARK INTRA:                  -0.401
REMARK UNBOUND:                -0.586
REMARK SMILES C#CCOc1cc(C(C)C)ccc1C
REMARK SMILES IDX 5 1 6 2 7 3 11 4 12 5 13 6 14 7 4 8 3 9 2 10 1 11 8 12 9 13
REMARK SMILES IDX 10 14
REMARK H PARENT
ROOT
ATOM      1  C   UNL     1      11.616 -25.264  22.744  1.00  0.00     0.123 A 
ATOM      2  C   UNL     1      10.871 -26.198  22.015  1.00  0.00     0.050 A 
ATOM      3  C   UNL     1       9.735 -25.812  21.282  1.00  0.00    -0.042 A 
ATOM      4  C   UNL     1       9.356 -24.464  21.294  1.00  0.00     0.004 A 
ATOM      5  C   UNL     1      10.092 -23.526  22.017  1.00  0.00     0.007 A 
ATOM      6  C   UNL     1      11.224 -23.914  22.747  1.00  0.00    -0.009 A 
ATOM      7  C   UNL     1      12.003 -22.886  23.519  1.00  0.00     0.048 C 
ENDROOT
BRANCH   1   8
ATOM      8  O   UNL     1      12.734 -25.552  23.485  1.00  0.00    -0.481 OA
BRANCH   8   9
ATOM      9  C   UNL     1      13.893 -26.001  22.788  1.00  0.00     0.318 C 
ATOM     10  C   UNL     1      14.176 -27.390  23.180  1.00  0.00    -0.065 C 
ATOM     11  C   UNL     1      14.408 -28.524  23.501  1.00  0.00     0.007 C 
ENDBRANCH   8   9
ENDBRANCH   1   8
BRANCH   3  12
ATOM     12  C   UNL     1       8.949 -26.851  20.502  1.00  0.00     0.013 C 
ATOM     13  C   UNL     1       8.201 -26.223  19.323  1.00  0.00     0.012 C 
ATOM     14  C   UNL     1       7.988 -27.627  21.406  1.00  0.00     0.012 C 
ENDBRANCH   3  12
TORSDOF 3
ENDMDL
MODEL 7
REMARK VINA RESULT:    -4.731      5.656      8.263
REMARK INTER + INTRA:          -6.147
REMARK INTER:                  -5.779
REMARK INTRA:                  -0.367
REMARK UNBOUND:                -0.586
REMARK SMILES C#CCOc1cc(C(C)C)ccc1C
REMARK SMILES IDX 5 1 6 2 7 3 11 4 12 5 13 6 14 7 4 8 3 9 2 10 1 11 8 12 9 13
REMARK SMILES IDX 10 14
REMARK H PARENT
ROOT
ATOM      1  C   UNL     1       9.258 -28.264  21.824  1.00  0.00     0.123 A 
ATOM      2  C   UNL     1       8.198 -27.692  21.110  1.00  0.00     0.050 A 
ATOM      3  C   UNL     1       8.253 -26.357  20.671  1.00  0.00    -0.042 A 
ATOM      4  C   UNL     1       9.395 -25.601  20.963  1.00  0.00     0.004 A 
ATOM      5  C   UNL     1      10.455 -26.163  21.673  1.00  0.00     0.007 A 
ATOM      6  C   UNL     1      10.398 -27.494  22.109  1.00  0.00    -0.009 A 
ATOM      7  C   UNL     1      11.553 -28.079  22.873  1.00  0.00     0.048 C 
ENDROOT
BRANCH   1   8
ATOM      8  O   UNL     1       9.289 -29.554  22.290  1.00  0.00    -0.481 OA
BRANCH   8   9
ATOM      9  C   UNL     1       8.085 -30.091  22.833  1.00  0.00     0.318 C 
ATOM     10  C   UNL     1       7.795 -31.371  22.171  1.00  0.00    -0.065 C 
ATOM     11  C   UNL     1       7.557 -32.418  21.629  1.00  0.00     0.007 C 
ENDBRANCH   8   9
ENDBRANCH   1   8
BRANCH   3  12
ATOM     12  C   UNL     1       7.085 -25.766  19.899  1.00  0.00     0.013 C 
ATOM     13  C   UNL     1       5.809 -26.589  20.094  1.00  0.00     0.012 C 
ATOM     14  C   UNL     1       7.413 -25.612  18.412  1.00  0.00     0.012 C 
ENDBRANCH   3  12
TORSDOF 3
ENDMDL
MODEL 8
REMARK VINA RESULT:    -4.712      3.063      5.657
REMARK INTER + INTRA:          -6.124
REMARK INTER:                  -5.775
REMARK INTRA:                  -0.349
REMARK UNBOUND:                -0.586
REMARK SMILES C#CCOc1cc(C(C)C)ccc1C
REMARK SMILES IDX 5 1 6 2 7 3 11 4 12 5 13 6 14 7 4 8 3 9 2 10 1 11 8 12 9 13
REMARK SMILES IDX 10 14
REMARK H PARENT
ROOT
ATOM      1  C   UNL     1      11.038 -25.433  21.928  1.00  0.00     0.123 A 
ATOM      2  C   UNL     1      11.267 -24.056  22.036  1.00  0.00     0.050 A 
ATOM      3  C   UNL     1      12.438 -23.558  22.635  1.00  0.00    -0.042 A 
ATOM      4  C   UNL     1      13.379 -24.470  23.127  1.00  0.00     0.004 A 
ATOM      5  C   UNL     1      13.159 -25.843  23.024  1.00  0.00     0.007 A 
ATOM      6  C   UNL     1      11.992 -26.337  22.426  1.00  0.00    -0.009 A 
ATOM      7  C   UNL     1      11.776 -27.821  22.324  1.00  0.00     0.048 C 
ENDROOT
BRANCH   1   8
ATOM      8  O   UNL     1       9.927 -26.005  21.360  1.00  0.00    -0.481 OA
BRANCH   8   9
ATOM      9  C   UNL     1       8.844 -25.146  21.014  1.00  0.00     0.318 C 
ATOM     10  C   UNL     1       8.237 -25.627  19.764  1.00  0.00    -0.065 C 
ATOM     11  C   UNL     1       7.741 -26.019  18.742  1.00  0.00     0.007 C 
ENDBRANCH   8   9
ENDBRANCH   1   8
BRANCH   3  12
ATOM     12  C   UNL     1      12.655 -22.058  22.738  1.00  0.00     0.013 C 
ATOM     13  C   UNL     1      14.097 -21.724  23.127  1.00  0.00     0.012 C 
ATOM     14  C   UNL     1      11.664 -21.410  23.707  1.00  0.00     0.012 C 
ENDBRANCH   3  12
TORSDOF 3
ENDMDL
