MODEL 1
REMARK VINA RESULT:    -7.055      0.000      0.000
REMARK INTER + INTRA:          -9.796
REMARK INTER:                  -9.117
REMARK INTRA:                  -0.679
REMARK UNBOUND:                -0.679
REMARK SMILES Cc1ccc(C(C)C)cc1OCc1cc(-c2ccccc2)no1
REMARK SMILES IDX 11 1 10 2 2 3 3 4 4 5 9 6 5 7 1 8 6 9 7 10 8 11 12 12 13 13
REMARK SMILES IDX 14 14 23 15 15 16 22 17 16 18 17 19 21 20 18 21 20 22 19 23
REMARK H PARENT
ROOT
ATOM      1  O   UNL     1      11.815 -27.451  24.968  1.00  0.00    -0.485 OA
ENDROOT
BRANCH   1   2
ATOM      2  C   UNL     1      12.450 -26.515  24.191  1.00  0.00     0.123 A 
ATOM      3  C   UNL     1      13.542 -26.984  23.444  1.00  0.00    -0.009 A 
ATOM      4  C   UNL     1      14.235 -26.095  22.610  1.00  0.00     0.007 A 
ATOM      5  C   UNL     1      13.842 -24.761  22.510  1.00  0.00     0.004 A 
ATOM      6  C   UNL     1      12.055 -25.177  24.075  1.00  0.00     0.050 A 
ATOM      7  C   UNL     1      12.746 -24.284  23.237  1.00  0.00    -0.042 A 
ATOM      8  C   UNL     1      13.978 -28.420  23.530  1.00  0.00     0.048 C 
BRANCH   7   9
ATOM      9  C   UNL     1      12.322 -22.832  23.100  1.00  0.00     0.013 C 
ATOM     10  C   UNL     1      11.086 -22.525  23.951  1.00  0.00     0.012 C 
ATOM     11  C   UNL     1      13.468 -21.876  23.437  1.00  0.00     0.012 C 
ENDBRANCH   7   9
ENDBRANCH   1   2
BRANCH   1  12
ATOM     12  C   UNL     1      10.387 -27.413  25.045  1.00  0.00     0.307 C 
BRANCH  12  13
ATOM     13  C   UNL     1       9.822 -27.539  23.684  1.00  0.00     0.174 A 
ATOM     14  C   UNL     1       8.966 -26.792  22.912  1.00  0.00     0.081 A 
ATOM     15  O   UNL     1      10.199 -28.637  22.981  1.00  0.00    -0.357 OA
ATOM     16  C   UNL     1       8.835 -27.512  21.695  1.00  0.00     0.114 A 
ATOM     17  N   UNL     1       9.590 -28.625  21.745  1.00  0.00    -0.079 NA
BRANCH  16  18
ATOM     18  C   UNL     1       8.031 -27.175  20.516  1.00  0.00     0.004 A 
ATOM     19  C   UNL     1       6.730 -27.686  20.368  1.00  0.00     0.010 A 
ATOM     20  C   UNL     1       8.534 -26.337  19.510  1.00  0.00     0.010 A 
ATOM     21  C   UNL     1       5.958 -27.371  19.246  1.00  0.00     0.001 A 
ATOM     22  C   UNL     1       7.761 -26.022  18.387  1.00  0.00     0.001 A 
ATOM     23  C   UNL     1       6.474 -26.539  18.256  1.00  0.00     0.000 A 
ENDBRANCH  16  18
ENDBRANCH  12  13
ENDBRANCH   1  12
TORSDOF 5
ENDMDL
MODEL 2
REMARK VINA RESULT:    -6.751      3.242      4.621
REMARK INTER + INTRA:          -9.404
REMARK INTER:                  -8.671
REMARK INTRA:                  -0.733
REMARK UNBOUND:                -0.679
REMARK SMILES Cc1ccc(C(C)C)cc1OCc1cc(-c2ccccc2)no1
REMARK SMILES IDX 11 1 10 2 2 3 3 4 4 5 9 6 5 7 1 8 6 9 7 10 8 11 12 12 13 13
REMARK SMILES IDX 14 14 23 15 15 16 22 17 16 18 17 19 21 20 18 21 20 22 19 23
REMARK H PARENT
ROOT
ATOM      1  O   UNL     1       9.458 -26.045  24.376  1.00  0.00    -0.485 OA
ENDROOT
BRANCH   1   2
ATOM      2  C   UNL     1      10.713 -25.645  23.994  1.00  0.00     0.123 A 
ATOM      3  C   UNL     1      10.903 -24.258  23.885  1.00  0.00    -0.009 A 
ATOM      4  C   UNL     1      12.162 -23.764  23.517  1.00  0.00     0.007 A 
ATOM      5  C   UNL     1      13.223 -24.637  23.271  1.00  0.00     0.004 A 
ATOM      6  C   UNL     1      11.787 -26.512  23.758  1.00  0.00     0.050 A 
ATOM      7  C   UNL     1      13.052 -26.020  23.392  1.00  0.00    -0.042 A 
ATOM      8  C   UNL     1       9.776 -23.300  24.153  1.00  0.00     0.048 C 
BRANCH   7   9
ATOM      9  C   UNL     1      14.225 -26.951  23.139  1.00  0.00     0.013 C 
ATOM     10  C   UNL     1      14.531 -27.815  24.366  1.00  0.00     0.012 C 
ATOM     11  C   UNL     1      13.998 -27.821  21.901  1.00  0.00     0.012 C 
ENDBRANCH   7   9
ENDBRANCH   1   2
BRANCH   1  12
ATOM     12  C   UNL     1       9.332 -26.865  25.542  1.00  0.00     0.307 C 
BRANCH  12  13
ATOM     13  C   UNL     1       8.693 -28.146  25.171  1.00  0.00     0.174 A 
ATOM     14  C   UNL     1       8.541 -28.856  24.005  1.00  0.00     0.081 A 
ATOM     15  O   UNL     1       8.094 -28.828  26.180  1.00  0.00    -0.357 OA
ATOM     16  C   UNL     1       7.798 -30.012  24.366  1.00  0.00     0.114 A 
ATOM     17  N   UNL     1       7.537 -29.988  25.685  1.00  0.00    -0.079 NA
BRANCH  16  18
ATOM     18  C   UNL     1       7.343 -31.110  23.507  1.00  0.00     0.004 A 
ATOM     19  C   UNL     1       6.269 -31.927  23.901  1.00  0.00     0.010 A 
ATOM     20  C   UNL     1       7.962 -31.374  22.276  1.00  0.00     0.010 A 
ATOM     21  C   UNL     1       5.830 -32.977  23.089  1.00  0.00     0.001 A 
ATOM     22  C   UNL     1       7.523 -32.425  21.464  1.00  0.00     0.001 A 
ATOM     23  C   UNL     1       6.458 -33.226  21.871  1.00  0.00     0.000 A 
ENDBRANCH  16  18
ENDBRANCH  12  13
ENDBRANCH   1  12
TORSDOF 5
ENDMDL
MODEL 3
REMARK VINA RESULT:    -6.735      2.698      4.222
REMARK INTER + INTRA:          -9.382
REMARK INTER:                  -8.694
REMARK INTRA:                  -0.689
REMARK UNBOUND:                -0.679
REMARK SMILES Cc1ccc(C(C)C)cc1OCc1cc(-c2ccccc2)no1
REMARK SMILES IDX 11 1 10 2 2 3 3 4 4 5 9 6 5 7 1 8 6 9 7 10 8 11 12 12 13 13
REMARK SMILES IDX 14 14 23 15 15 16 22 17 16 18 17 19 21 20 18 21 20 22 19 23
REMARK H PARENT
ROOT
ATOM      1  O   UNL     1      11.271 -23.656  23.961  1.00  0.00    -0.485 OA
ENDROOT
BRANCH   1   2
ATOM      2  C   UNL     1      11.553 -24.998  23.928  1.00  0.00     0.123 A 
ATOM      3  C   UNL     1      10.537 -25.845  24.402  1.00  0.00    -0.009 A 
ATOM      4  C   UNL     1      10.737 -27.233  24.386  1.00  0.00     0.007 A 
ATOM      5  C   UNL     1      11.927 -27.773  23.897  1.00  0.00     0.004 A 
ATOM      6  C   UNL     1      12.737 -25.551  23.427  1.00  0.00     0.050 A 
ATOM      7  C   UNL     1      12.940 -26.942  23.407  1.00  0.00    -0.042 A 
ATOM      8  C   UNL     1       9.245 -25.284  24.927  1.00  0.00     0.048 C 
BRANCH   7   9
ATOM      9  C   UNL     1      14.219 -27.552  22.861  1.00  0.00     0.013 C 
ATOM     10  C   UNL     1      14.556 -28.871  23.563  1.00  0.00     0.012 C 
ATOM     11  C   UNL     1      14.151 -27.743  21.345  1.00  0.00     0.012 C 
ENDBRANCH   7   9
ENDBRANCH   1   2
BRANCH   1  12
ATOM     12  C   UNL     1      11.161 -22.956  22.719  1.00  0.00     0.307 C 
BRANCH  12  13
ATOM     13  C   UNL     1       9.983 -23.457  21.978  1.00  0.00     0.174 A 
ATOM     14  C   UNL     1       8.649 -23.134  21.938  1.00  0.00     0.081 A 
ATOM     15  O   UNL     1      10.210 -24.485  21.121  1.00  0.00    -0.357 OA
ATOM     16  C   UNL     1       8.073 -24.041  21.009  1.00  0.00     0.114 A 
ATOM     17  N   UNL     1       9.028 -24.851  20.516  1.00  0.00    -0.079 NA
BRANCH  16  18
ATOM     18  C   UNL     1       6.673 -24.152  20.588  1.00  0.00     0.004 A 
ATOM     19  C   UNL     1       6.228 -25.278  19.874  1.00  0.00     0.010 A 
ATOM     20  C   UNL     1       5.743 -23.145  20.886  1.00  0.00     0.010 A 
ATOM     21  C   UNL     1       4.895 -25.390  19.468  1.00  0.00     0.001 A 
ATOM     22  C   UNL     1       4.409 -23.257  20.480  1.00  0.00     0.001 A 
ATOM     23  C   UNL     1       3.987 -24.379  19.770  1.00  0.00     0.000 A 
ENDBRANCH  16  18
ENDBRANCH  12  13
ENDBRANCH   1  12
TORSDOF 5
ENDMDL
MODEL 4
REMARK VINA RESULT:    -6.701      2.932      4.625
REMARK INTER + INTRA:          -9.339
REMARK INTER:                  -8.962
REMARK INTRA:                  -0.377
REMARK UNBOUND:                -0.679
REMARK SMILES Cc1ccc(C(C)C)cc1OCc1cc(-c2ccccc2)no1
REMARK SMILES IDX 11 1 10 2 2 3 3 4 4 5 9 6 5 7 1 8 6 9 7 10 8 11 12 12 13 13
REMARK SMILES IDX 14 14 23 15 15 16 22 17 16 18 17 19 21 20 18 21 20 22 19 23
REMARK H PARENT
ROOT
ATOM      1  O   UNL     1       9.410 -25.484  22.207  1.00  0.00    -0.485 OA
ENDROOT
BRANCH   1   2
ATOM      2  C   UNL     1      10.713 -25.144  22.464  1.00  0.00     0.123 A 
ATOM      3  C   UNL     1      10.945 -23.786  22.738  1.00  0.00    -0.009 A 
ATOM      4  C   UNL     1      12.248 -23.357  23.028  1.00  0.00     0.007 A 
ATOM      5  C   UNL     1      13.305 -24.266  23.057  1.00  0.00     0.004 A 
ATOM      6  C   UNL     1      11.779 -26.051  22.509  1.00  0.00     0.050 A 
ATOM      7  C   UNL     1      13.085 -25.624  22.803  1.00  0.00    -0.042 A 
ATOM      8  C   UNL     1       9.819 -22.791  22.718  1.00  0.00     0.048 C 
BRANCH   7   9
ATOM      9  C   UNL     1      14.248 -26.600  22.859  1.00  0.00     0.013 C 
ATOM     10  C   UNL     1      14.228 -27.422  24.151  1.00  0.00     0.012 C 
ATOM     11  C   UNL     1      14.278 -27.513  21.631  1.00  0.00     0.012 C 
ENDBRANCH   7   9
ENDBRANCH   1   2
BRANCH   1  12
ATOM     12  C   UNL     1       9.135 -26.313  21.074  1.00  0.00     0.307 C 
BRANCH  12  13
ATOM     13  C   UNL     1       8.786 -27.674  21.537  1.00  0.00     0.174 A 
ATOM     14  C   UNL     1       7.624 -28.399  21.640  1.00  0.00     0.081 A 
ATOM     15  O   UNL     1       9.817 -28.434  21.985  1.00  0.00    -0.357 OA
ATOM     16  C   UNL     1       8.012 -29.649  22.191  1.00  0.00     0.114 A 
ATOM     17  N   UNL     1       9.342 -29.663  22.391  1.00  0.00    -0.079 NA
BRANCH  16  18
ATOM     18  C   UNL     1       7.168 -30.803  22.522  1.00  0.00     0.004 A 
ATOM     19  C   UNL     1       6.626 -31.607  21.505  1.00  0.00     0.010 A 
ATOM     20  C   UNL     1       6.883 -31.135  23.855  1.00  0.00     0.010 A 
ATOM     21  C   UNL     1       5.821 -32.707  21.813  1.00  0.00     0.001 A 
ATOM     22  C   UNL     1       6.077 -32.236  24.162  1.00  0.00     0.001 A 
ATOM     23  C   UNL     1       5.546 -33.020  23.141  1.00  0.00     0.000 A 
ENDBRANCH  16  18
ENDBRANCH  12  13
ENDBRANCH   1  12
TORSDOF 5
ENDMDL
MODEL 5
REMARK VINA RESULT:    -6.694      2.873      3.597
REMARK INTER + INTRA:          -9.329
REMARK INTER:                  -8.673
REMARK INTRA:                  -0.656
REMARK UNBOUND:                -0.679
REMARK SMILES Cc1ccc(C(C)C)cc1OCc1cc(-c2ccccc2)no1
REMARK SMILES IDX 11 1 10 2 2 3 3 4 4 5 9 6 5 7 1 8 6 9 7 10 8 11 12 12 13 13
REMARK SMILES IDX 14 14 23 15 15 16 22 17 16 18 17 19 21 20 18 21 20 22 19 23
REMARK H PARENT
ROOT
ATOM      1  O   UNL     1      11.306 -27.342  24.734  1.00  0.00    -0.485 OA
ENDROOT
BRANCH   1   2
ATOM      2  C   UNL     1      12.060 -26.398  24.085  1.00  0.00     0.123 A 
ATOM      3  C   UNL     1      13.215 -26.878  23.444  1.00  0.00    -0.009 A 
ATOM      4  C   UNL     1      14.032 -25.981  22.742  1.00  0.00     0.007 A 
ATOM      5  C   UNL     1      13.702 -24.628  22.666  1.00  0.00     0.004 A 
ATOM      6  C   UNL     1      11.730 -25.041  23.992  1.00  0.00     0.050 A 
ATOM      7  C   UNL     1      12.546 -24.141  23.286  1.00  0.00    -0.042 A 
ATOM      8  C   UNL     1      13.586 -28.333  23.507  1.00  0.00     0.048 C 
BRANCH   7   9
ATOM      9  C   UNL     1      12.194 -22.667  23.176  1.00  0.00     0.013 C 
ATOM     10  C   UNL     1      10.970 -22.317  24.027  1.00  0.00     0.012 C 
ATOM     11  C   UNL     1      13.383 -21.774  23.536  1.00  0.00     0.012 C 
ENDBRANCH   7   9
ENDBRANCH   1   2
BRANCH   1  12
ATOM     12  C   UNL     1       9.886 -27.174  24.763  1.00  0.00     0.307 C 
BRANCH  12  13
ATOM     13  C   UNL     1       9.246 -28.306  24.058  1.00  0.00     0.174 A 
ATOM     14  C   UNL     1       8.234 -29.187  24.349  1.00  0.00     0.081 A 
ATOM     15  O   UNL     1       9.736 -28.595  22.825  1.00  0.00    -0.357 OA
ATOM     16  C   UNL     1       8.146 -30.042  23.217  1.00  0.00     0.114 A 
ATOM     17  N   UNL     1       9.056 -29.671  22.299  1.00  0.00    -0.079 NA
BRANCH  16  18
ATOM     18  C   UNL     1       7.239 -31.172  22.994  1.00  0.00     0.004 A 
ATOM     19  C   UNL     1       7.153 -31.781  21.730  1.00  0.00     0.010 A 
ATOM     20  C   UNL     1       6.438 -31.676  24.030  1.00  0.00     0.010 A 
ATOM     21  C   UNL     1       6.290 -32.859  21.510  1.00  0.00     0.001 A 
ATOM     22  C   UNL     1       5.575 -32.754  23.809  1.00  0.00     0.001 A 
ATOM     23  C   UNL     1       5.500 -33.344  22.549  1.00  0.00     0.000 A 
ENDBRANCH  16  18
ENDBRANCH  12  13
ENDBRANCH   1  12
TORSDOF 5
ENDMDL
MODEL 6
REMARK VINA RESULT:    -6.683      3.708      6.329
REMARK INTER + INTRA:          -9.316
REMARK INTER:                  -8.477
REMARK INTRA:                  -0.838
REMARK UNBOUND:                -0.679
REMARK SMILES Cc1ccc(C(C)C)cc1OCc1cc(-c2ccccc2)no1
REMARK SMILES IDX 11 1 10 2 2 3 3 4 4 5 9 6 5 7 1 8 6 9 7 10 8 11 12 12 13 13
REMARK SMILES IDX 14 14 23 15 15 16 22 17 16 18 17 19 21 20 18 21 20 22 19 23
REMARK H PARENT
ROOT
ATOM      1  O   UNL     1       8.555 -26.160  19.773  1.00  0.00    -0.485 OA
ENDROOT
BRANCH   1   2
ATOM      2  C   UNL     1       7.509 -25.283  19.904  1.00  0.00     0.123 A 
ATOM      3  C   UNL     1       6.359 -25.591  19.157  1.00  0.00    -0.009 A 
ATOM      4  C   UNL     1       5.238 -24.755  19.248  1.00  0.00     0.007 A 
ATOM      5  C   UNL     1       5.252 -23.634  20.079  1.00  0.00     0.004 A 
ATOM      6  C   UNL     1       7.509 -24.164  20.745  1.00  0.00     0.050 A 
ATOM      7  C   UNL     1       6.384 -23.326  20.841  1.00  0.00    -0.042 A 
ATOM      8  C   UNL     1       6.320 -26.797  18.261  1.00  0.00     0.048 C 
BRANCH   7   9
ATOM      9  C   UNL     1       6.372 -22.112  21.754  1.00  0.00     0.013 C 
ATOM     10  C   UNL     1       7.638 -21.267  21.581  1.00  0.00     0.012 C 
ATOM     11  C   UNL     1       5.116 -21.263  21.547  1.00  0.00     0.012 C 
ENDBRANCH   7   9
ENDBRANCH   1   2
BRANCH   1  12
ATOM     12  C   UNL     1       9.348 -26.449  20.928  1.00  0.00     0.307 C 
BRANCH  12  13
ATOM     13  C   UNL     1       8.954 -27.766  21.474  1.00  0.00     0.174 A 
ATOM     14  C   UNL     1       7.811 -28.528  21.449  1.00  0.00     0.081 A 
ATOM     15  O   UNL     1       9.905 -28.426  22.183  1.00  0.00    -0.357 OA
ATOM     16  C   UNL     1       8.123 -29.693  22.200  1.00  0.00     0.114 A 
ATOM     17  N   UNL     1       9.394 -29.624  22.635  1.00  0.00    -0.079 NA
BRANCH  16  18
ATOM     18  C   UNL     1       7.263 -30.841  22.504  1.00  0.00     0.004 A 
ATOM     19  C   UNL     1       6.994 -31.199  23.836  1.00  0.00     0.010 A 
ATOM     20  C   UNL     1       6.685 -31.607  21.481  1.00  0.00     0.010 A 
ATOM     21  C   UNL     1       6.176 -32.293  24.134  1.00  0.00     0.001 A 
ATOM     22  C   UNL     1       5.867 -32.701  21.779  1.00  0.00     0.001 A 
ATOM     23  C   UNL     1       5.614 -33.044  23.105  1.00  0.00     0.000 A 
ENDBRANCH  16  18
ENDBRANCH  12  13
ENDBRANCH   1  12
TORSDOF 5
ENDMDL
MODEL 7
REMARK VINA RESULT:    -6.613      4.382      8.198
REMARK INTER + INTRA:          -9.225
REMARK INTER:                  -8.575
REMARK INTRA:                  -0.650
REMARK UNBOUND:                -0.679
REMARK SMILES Cc1ccc(C(C)C)cc1OCc1cc(-c2ccccc2)no1
REMARK SMILES IDX 11 1 10 2 2 3 3 4 4 5 9 6 5 7 1 8 6 9 7 10 8 11 12 12 13 13
REMARK SMILES IDX 14 14 23 15 15 16 22 17 16 18 17 19 21 20 18 21 20 22 19 23
REMARK H PARENT
ROOT
ATOM      1  O   UNL     1       7.732 -31.053  22.554  1.00  0.00    -0.485 OA
ENDROOT
BRANCH   1   2
ATOM      2  C   UNL     1       6.939 -31.723  23.451  1.00  0.00     0.123 A 
ATOM      3  C   UNL     1       6.014 -32.621  22.893  1.00  0.00    -0.009 A 
ATOM      4  C   UNL     1       5.177 -33.359  23.742  1.00  0.00     0.007 A 
ATOM      5  C   UNL     1       5.265 -33.217  25.127  1.00  0.00     0.004 A 
ATOM      6  C   UNL     1       7.029 -31.597  24.842  1.00  0.00     0.050 A 
ATOM      7  C   UNL     1       6.194 -32.339  25.696  1.00  0.00    -0.042 A 
ATOM      8  C   UNL     1       5.907 -32.794  21.404  1.00  0.00     0.048 C 
BRANCH   7   9
ATOM      9  C   UNL     1       6.287 -32.213  27.207  1.00  0.00     0.013 C 
ATOM     10  C   UNL     1       5.556 -33.360  27.911  1.00  0.00     0.012 C 
ATOM     11  C   UNL     1       7.740 -32.121  27.677  1.00  0.00     0.012 C 
ENDBRANCH   7   9
ENDBRANCH   1   2
BRANCH   1  12
ATOM     12  C   UNL     1       7.504 -29.654  22.361  1.00  0.00     0.307 C 
BRANCH  12  13
ATOM     13  C   UNL     1       8.733 -28.907  22.708  1.00  0.00     0.174 A 
ATOM     14  C   UNL     1       9.816 -28.434  22.008  1.00  0.00     0.081 A 
ATOM     15  O   UNL     1       8.886 -28.588  24.019  1.00  0.00    -0.357 OA
ATOM     16  C   UNL     1      10.647 -27.815  22.980  1.00  0.00     0.114 A 
ATOM     17  N   UNL     1      10.072 -27.909  24.193  1.00  0.00    -0.079 NA
BRANCH  16  18
ATOM     18  C   UNL     1      11.941 -27.152  22.786  1.00  0.00     0.004 A 
ATOM     19  C   UNL     1      12.179 -25.879  23.331  1.00  0.00     0.010 A 
ATOM     20  C   UNL     1      12.970 -27.767  22.059  1.00  0.00     0.010 A 
ATOM     21  C   UNL     1      13.409 -25.240  23.150  1.00  0.00     0.001 A 
ATOM     22  C   UNL     1      14.201 -27.128  21.878  1.00  0.00     0.001 A 
ATOM     23  C   UNL     1      14.419 -25.864  22.423  1.00  0.00     0.000 A 
ENDBRANCH  16  18
ENDBRANCH  12  13
ENDBRANCH   1  12
TORSDOF 5
ENDMDL
MODEL 8
REMARK VINA RESULT:    -6.580      3.527      4.850
REMARK INTER + INTRA:          -9.183
REMARK INTER:                  -8.520
REMARK INTRA:                  -0.663
REMARK UNBOUND:                -0.679
REMARK SMILES Cc1ccc(C(C)C)cc1OCc1cc(-c2ccccc2)no1
REMARK SMILES IDX 11 1 10 2 2 3 3 4 4 5 9 6 5 7 1 8 6 9 7 10 8 11 12 12 13 13
REMARK SMILES IDX 14 14 23 15 15 16 22 17 16 18 17 19 21 20 18 21 20 22 19 23
REMARK H PARENT
ROOT
ATOM      1  O   UNL     1       9.427 -25.506  21.973  1.00  0.00    -0.485 OA
ENDROOT
BRANCH   1   2
ATOM      2  C   UNL     1      10.722 -25.190  22.296  1.00  0.00     0.123 A 
ATOM      3  C   UNL     1      10.953 -23.847  22.637  1.00  0.00    -0.009 A 
ATOM      4  C   UNL     1      12.246 -23.443  22.998  1.00  0.00     0.007 A 
ATOM      5  C   UNL     1      13.295 -24.363  23.029  1.00  0.00     0.004 A 
ATOM      6  C   UNL     1      11.778 -26.107  22.343  1.00  0.00     0.050 A 
ATOM      7  C   UNL     1      13.075 -25.706  22.707  1.00  0.00    -0.042 A 
ATOM      8  C   UNL     1       9.836 -22.841  22.617  1.00  0.00     0.048 C 
BRANCH   7   9
ATOM      9  C   UNL     1      14.226 -26.695  22.766  1.00  0.00     0.013 C 
ATOM     10  C   UNL     1      14.237 -27.466  24.090  1.00  0.00     0.012 C 
ATOM     11  C   UNL     1      14.207 -27.656  21.575  1.00  0.00     0.012 C 
ENDBRANCH   7   9
ENDBRANCH   1   2
BRANCH   1  12
ATOM     12  C   UNL     1       9.130 -25.847  20.615  1.00  0.00     0.307 C 
BRANCH  12  13
ATOM     13  C   UNL     1       7.785 -25.337  20.268  1.00  0.00     0.174 A 
ATOM     14  C   UNL     1       6.844 -24.563  20.901  1.00  0.00     0.081 A 
ATOM     15  O   UNL     1       7.313 -25.686  19.044  1.00  0.00    -0.357 OA
ATOM     16  C   UNL     1       5.759 -24.474  19.989  1.00  0.00     0.114 A 
ATOM     17  N   UNL     1       6.055 -25.152  18.866  1.00  0.00    -0.079 NA
BRANCH  16  18
ATOM     18  C   UNL     1       4.480 -23.774  20.155  1.00  0.00     0.004 A 
ATOM     19  C   UNL     1       3.264 -24.464  20.010  1.00  0.00     0.010 A 
ATOM     20  C   UNL     1       4.436 -22.407  20.465  1.00  0.00     0.010 A 
ATOM     21  C   UNL     1       2.042 -23.804  20.166  1.00  0.00     0.001 A 
ATOM     22  C   UNL     1       3.212 -21.747  20.620  1.00  0.00     0.001 A 
ATOM     23  C   UNL     1       2.017 -22.446  20.470  1.00  0.00     0.000 A 
ENDBRANCH  16  18
ENDBRANCH  12  13
ENDBRANCH   1  12
TORSDOF 5
ENDMDL
