MODEL 1
REMARK VINA RESULT:    -5.434      0.000      0.000
REMARK INTER + INTRA:          -6.973
REMARK INTER:                  -6.386
REMARK INTRA:                  -0.587
REMARK UNBOUND:                -0.587
REMARK SMILES C#CCOc1cc(C(C)C)ccc1C
REMARK SMILES IDX 5 1 6 2 7 3 11 4 12 5 13 6 14 7 4 8 3 9 2 10 1 11 8 12 9 13
REMARK SMILES IDX 10 14
REMARK H PARENT
ROOT
ATOM      1  C   UNL     1      12.746 -23.319  22.991  1.00  0.00     0.123 A 
ATOM      2  C   UNL     1      13.616 -24.400  22.807  1.00  0.00     0.050 A 
ATOM      3  C   UNL     1      13.281 -25.689  23.258  1.00  0.00    -0.042 A 
ATOM      4  C   UNL     1      12.052 -25.876  23.902  1.00  0.00     0.004 A 
ATOM      5  C   UNL     1      11.179 -24.805  24.090  1.00  0.00     0.007 A 
ATOM      6  C   UNL     1      11.516 -23.521  23.639  1.00  0.00    -0.009 A 
ATOM      7  C   UNL     1      10.559 -22.381  23.852  1.00  0.00     0.048 C 
ENDROOT
BRANCH   1   8
ATOM      8  O   UNL     1      12.991 -22.032  22.584  1.00  0.00    -0.481 OA
BRANCH   8   9
ATOM      9  C   UNL     1      14.165 -21.393  23.079  1.00  0.00     0.318 C 
ATOM     10  C   UNL     1      13.814 -20.612  24.274  1.00  0.00    -0.065 C 
ATOM     11  C   UNL     1      13.527 -19.974  25.251  1.00  0.00     0.007 C 
ENDBRANCH   8   9
ENDBRANCH   1   8
BRANCH   3  12
ATOM     12  C   UNL     1      14.248 -26.841  23.042  1.00  0.00     0.013 C 
ATOM     13  C   UNL     1      13.846 -27.695  21.837  1.00  0.00     0.012 C 
ATOM     14  C   UNL     1      14.388 -27.702  24.299  1.00  0.00     0.012 C 
ENDBRANCH   3  12
TORSDOF 3
ENDMDL
MODEL 2
REMARK VINA RESULT:    -5.088      3.142      4.788
REMARK INTER + INTRA:          -6.567
REMARK INTER:                  -6.124
REMARK INTRA:                  -0.443
REMARK UNBOUND:                -0.587
REMARK SMILES C#CCOc1cc(C(C)C)ccc1C
REMARK SMILES IDX 5 1 6 2 7 3 11 4 12 5 13 6 14 7 4 8 3 9 2 10 1 11 8 12 9 13
REMARK SMILES IDX 10 14
REMARK H PARENT
ROOT
ATOM      1  C   UNL     1      10.597 -25.547  22.087  1.00  0.00     0.123 A 
ATOM      2  C   UNL     1      11.695 -26.392  22.288  1.00  0.00     0.050 A 
ATOM      3  C   UNL     1      12.961 -25.874  22.617  1.00  0.00    -0.042 A 
ATOM      4  C   UNL     1      13.107 -24.487  22.741  1.00  0.00     0.004 A 
ATOM      5  C   UNL     1      12.018 -23.638  22.542  1.00  0.00     0.007 A 
ATOM      6  C   UNL     1      10.758 -24.157  22.215  1.00  0.00    -0.009 A 
ATOM      7  C   UNL     1       9.597 -23.224  22.006  1.00  0.00     0.048 C 
ENDROOT
BRANCH   1   8
ATOM      8  O   UNL     1       9.331 -25.965  21.765  1.00  0.00    -0.481 OA
BRANCH   8   9
ATOM      9  C   UNL     1       9.198 -26.949  20.743  1.00  0.00     0.318 C 
ATOM     10  C   UNL     1       8.438 -26.374  19.623  1.00  0.00    -0.065 C 
ATOM     11  C   UNL     1       7.817 -25.903  18.708  1.00  0.00     0.007 C 
ENDBRANCH   8   9
ENDBRANCH   1   8
BRANCH   3  12
ATOM     12  C   UNL     1      14.132 -26.818  22.828  1.00  0.00     0.013 C 
ATOM     13  C   UNL     1      14.154 -27.930  21.777  1.00  0.00     0.012 C 
ATOM     14  C   UNL     1      14.137 -27.403  24.242  1.00  0.00     0.012 C 
ENDBRANCH   3  12
TORSDOF 3
ENDMDL
MODEL 3
REMARK VINA RESULT:    -5.083      2.503      5.163
REMARK INTER + INTRA:          -6.561
REMARK INTER:                  -5.949
REMARK INTRA:                  -0.613
REMARK UNBOUND:                -0.587
REMARK SMILES C#CCOc1cc(C(C)C)ccc1C
REMARK SMILES IDX 5 1 6 2 7 3 11 4 12 5 13 6 14 7 4 8 3 9 2 10 1 11 8 12 9 13
REMARK SMILES IDX 10 14
REMARK H PARENT
ROOT
ATOM      1  C   UNL     1      12.490 -26.260  24.260  1.00  0.00     0.123 A 
ATOM      2  C   UNL     1      11.394 -27.001  24.720  1.00  0.00     0.050 A 
ATOM      3  C   UNL     1      10.076 -26.552  24.522  1.00  0.00    -0.042 A 
ATOM      4  C   UNL     1       9.875 -25.338  23.852  1.00  0.00     0.004 A 
ATOM      5  C   UNL     1      10.961 -24.594  23.391  1.00  0.00     0.007 A 
ATOM      6  C   UNL     1      12.273 -25.045  23.589  1.00  0.00    -0.009 A 
ATOM      7  C   UNL     1      13.428 -24.227  23.083  1.00  0.00     0.048 C 
ENDROOT
BRANCH   1   8
ATOM      8  O   UNL     1      13.804 -26.623  24.409  1.00  0.00    -0.481 OA
BRANCH   8   9
ATOM      9  C   UNL     1      14.195 -27.909  23.935  1.00  0.00     0.318 C 
ATOM     10  C   UNL     1      14.191 -27.894  22.465  1.00  0.00    -0.065 C 
ATOM     11  C   UNL     1      14.189 -27.883  21.263  1.00  0.00     0.007 C 
ENDBRANCH   8   9
ENDBRANCH   1   8
BRANCH   3  12
ATOM     12  C   UNL     1       8.910 -27.379  25.034  1.00  0.00     0.013 C 
ATOM     13  C   UNL     1       9.081 -27.737  26.513  1.00  0.00     0.012 C 
ATOM     14  C   UNL     1       8.698 -28.637  24.189  1.00  0.00     0.012 C 
ENDBRANCH   3  12
TORSDOF 3
ENDMDL
MODEL 4
REMARK VINA RESULT:    -4.975      1.403      1.659
REMARK INTER + INTRA:          -6.434
REMARK INTER:                  -6.045
REMARK INTRA:                  -0.390
REMARK UNBOUND:                -0.587
REMARK SMILES C#CCOc1cc(C(C)C)ccc1C
REMARK SMILES IDX 5 1 6 2 7 3 11 4 12 5 13 6 14 7 4 8 3 9 2 10 1 11 8 12 9 13
REMARK SMILES IDX 10 14
REMARK H PARENT
ROOT
ATOM      1  C   UNL     1      12.099 -23.787  22.499  1.00  0.00     0.123 A 
ATOM      2  C   UNL     1      13.163 -24.670  22.719  1.00  0.00     0.050 A 
ATOM      3  C   UNL     1      13.005 -26.057  22.553  1.00  0.00    -0.042 A 
ATOM      4  C   UNL     1      11.752 -26.547  22.162  1.00  0.00     0.004 A 
ATOM      5  C   UNL     1      10.687 -25.675  21.941  1.00  0.00     0.007 A 
ATOM      6  C   UNL     1      10.848 -24.293  22.107  1.00  0.00    -0.009 A 
ATOM      7  C   UNL     1       9.686 -23.371  21.862  1.00  0.00     0.048 C 
ENDROOT
BRANCH   1   8
ATOM      8  O   UNL     1      12.165 -22.424  22.637  1.00  0.00    -0.481 OA
BRANCH   8   9
ATOM      9  C   UNL     1      13.186 -21.891  23.476  1.00  0.00     0.318 C 
ATOM     10  C   UNL     1      14.114 -21.101  22.654  1.00  0.00    -0.065 C 
ATOM     11  C   UNL     1      14.873 -20.456  21.981  1.00  0.00     0.007 C 
ENDBRANCH   8   9
ENDBRANCH   1   8
BRANCH   3  12
ATOM     12  C   UNL     1      14.180 -26.988  22.800  1.00  0.00     0.013 C 
ATOM     13  C   UNL     1      14.211 -28.135  21.788  1.00  0.00     0.012 C 
ATOM     14  C   UNL     1      14.181 -27.525  24.233  1.00  0.00     0.012 C 
ENDBRANCH   3  12
TORSDOF 3
ENDMDL
MODEL 5
REMARK VINA RESULT:    -4.831      1.350      5.015
REMARK INTER + INTRA:          -6.265
REMARK INTER:                  -5.868
REMARK INTRA:                  -0.398
REMARK UNBOUND:                -0.587
REMARK SMILES C#CCOc1cc(C(C)C)ccc1C
REMARK SMILES IDX 5 1 6 2 7 3 11 4 12 5 13 6 14 7 4 8 3 9 2 10 1 11 8 12 9 13
REMARK SMILES IDX 10 14
REMARK H PARENT
ROOT
ATOM      1  C   UNL     1      12.437 -24.386  22.999  1.00  0.00     0.123 A 
ATOM      2  C   UNL     1      13.122 -23.168  22.917  1.00  0.00     0.050 A 
ATOM      3  C   UNL     1      12.574 -21.987  23.449  1.00  0.00    -0.042 A 
ATOM      4  C   UNL     1      11.319 -22.049  24.066  1.00  0.00     0.004 A 
ATOM      5  C   UNL     1      10.629 -23.259  24.152  1.00  0.00     0.007 A 
ATOM      6  C   UNL     1      11.178 -24.434  23.622  1.00  0.00    -0.009 A 
ATOM      7  C   UNL     1      10.418 -25.727  23.726  1.00  0.00     0.048 C 
ENDROOT
BRANCH   1   8
ATOM      8  O   UNL     1      12.896 -25.583  22.509  1.00  0.00    -0.481 OA
BRANCH   8   9
ATOM      9  C   UNL     1      14.235 -25.958  22.824  1.00  0.00     0.318 C 
ATOM     10  C   UNL     1      14.275 -27.405  23.080  1.00  0.00    -0.065 C 
ATOM     11  C   UNL     1      14.308 -28.588  23.290  1.00  0.00     0.007 C 
ENDBRANCH   8   9
ENDBRANCH   1   8
BRANCH   3  12
ATOM     12  C   UNL     1      13.343 -20.682  23.342  1.00  0.00     0.013 C 
ATOM     13  C   UNL     1      14.587 -20.831  22.463  1.00  0.00     0.012 C 
ATOM     14  C   UNL     1      13.713 -20.132  24.722  1.00  0.00     0.012 C 
ENDBRANCH   3  12
TORSDOF 3
ENDMDL
MODEL 6
REMARK VINA RESULT:    -4.818      1.991      3.927
REMARK INTER + INTRA:          -6.250
REMARK INTER:                  -5.634
REMARK INTRA:                  -0.616
REMARK UNBOUND:                -0.587
REMARK SMILES C#CCOc1cc(C(C)C)ccc1C
REMARK SMILES IDX 5 1 6 2 7 3 11 4 12 5 13 6 14 7 4 8 3 9 2 10 1 11 8 12 9 13
REMARK SMILES IDX 10 14
REMARK H PARENT
ROOT
ATOM      1  C   UNL     1      11.047 -24.761  23.906  1.00  0.00     0.123 A 
ATOM      2  C   UNL     1      11.606 -26.045  23.903  1.00  0.00     0.050 A 
ATOM      3  C   UNL     1      12.925 -26.264  23.468  1.00  0.00    -0.042 A 
ATOM      4  C   UNL     1      13.678 -25.167  23.033  1.00  0.00     0.004 A 
ATOM      5  C   UNL     1      13.130 -23.885  23.032  1.00  0.00     0.007 A 
ATOM      6  C   UNL     1      11.815 -23.670  23.466  1.00  0.00    -0.009 A 
ATOM      7  C   UNL     1      11.244 -22.279  23.458  1.00  0.00     0.048 C 
ENDROOT
BRANCH   1   8
ATOM      8  O   UNL     1       9.772 -24.458  24.312  1.00  0.00    -0.481 OA
BRANCH   8   9
ATOM      9  C   UNL     1       8.700 -25.202  23.740  1.00  0.00     0.318 C 
ATOM     10  C   UNL     1       8.612 -24.884  22.307  1.00  0.00    -0.065 C 
ATOM     11  C   UNL     1       8.540 -24.625  21.135  1.00  0.00     0.007 C 
ENDBRANCH   8   9
ENDBRANCH   1   8
BRANCH   3  12
ATOM     12  C   UNL     1      13.501 -27.670  23.477  1.00  0.00     0.013 C 
ATOM     13  C   UNL     1      14.549 -27.841  24.579  1.00  0.00     0.012 C 
ATOM     14  C   UNL     1      14.077 -28.051  22.112  1.00  0.00     0.012 C 
ENDBRANCH   3  12
TORSDOF 3
ENDMDL
MODEL 7
REMARK VINA RESULT:    -4.724      3.034      5.622
REMARK INTER + INTRA:          -6.140
REMARK INTER:                  -5.785
REMARK INTRA:                  -0.355
REMARK UNBOUND:                -0.587
REMARK SMILES C#CCOc1cc(C(C)C)ccc1C
REMARK SMILES IDX 5 1 6 2 7 3 11 4 12 5 13 6 14 7 4 8 3 9 2 10 1 11 8 12 9 13
REMARK SMILES IDX 10 14
REMARK H PARENT
ROOT
ATOM      1  C   UNL     1      11.078 -25.492  21.966  1.00  0.00     0.123 A 
ATOM      2  C   UNL     1      11.307 -24.115  22.068  1.00  0.00     0.050 A 
ATOM      3  C   UNL     1      12.492 -23.614  22.637  1.00  0.00    -0.042 A 
ATOM      4  C   UNL     1      13.447 -24.524  23.106  1.00  0.00     0.004 A 
ATOM      5  C   UNL     1      13.227 -25.898  23.009  1.00  0.00     0.007 A 
ATOM      6  C   UNL     1      12.046 -26.394  22.441  1.00  0.00    -0.009 A 
ATOM      7  C   UNL     1      11.829 -27.879  22.345  1.00  0.00     0.048 C 
ENDROOT
BRANCH   1   8
ATOM      8  O   UNL     1       9.954 -26.066  21.427  1.00  0.00    -0.481 OA
BRANCH   8   9
ATOM      9  C   UNL     1       8.875 -25.205  21.073  1.00  0.00     0.318 C 
ATOM     10  C   UNL     1       8.324 -25.640  19.782  1.00  0.00    -0.065 C 
ATOM     11  C   UNL     1       7.873 -25.995  18.725  1.00  0.00     0.007 C 
ENDBRANCH   8   9
ENDBRANCH   1   8
BRANCH   3  12
ATOM     12  C   UNL     1      12.709 -22.114  22.733  1.00  0.00     0.013 C 
ATOM     13  C   UNL     1      14.154 -21.778  23.110  1.00  0.00     0.012 C 
ATOM     14  C   UNL     1      11.726 -21.463  23.708  1.00  0.00     0.012 C 
ENDBRANCH   3  12
TORSDOF 3
ENDMDL
MODEL 8
REMARK VINA RESULT:    -4.704      5.708      8.265
REMARK INTER + INTRA:          -6.116
REMARK INTER:                  -5.735
REMARK INTRA:                  -0.381
REMARK UNBOUND:                -0.587
REMARK SMILES C#CCOc1cc(C(C)C)ccc1C
REMARK SMILES IDX 5 1 6 2 7 3 11 4 12 5 13 6 14 7 4 8 3 9 2 10 1 11 8 12 9 13
REMARK SMILES IDX 10 14
REMARK H PARENT
ROOT
ATOM      1  C   UNL     1       9.244 -28.389  22.028  1.00  0.00     0.123 A 
ATOM      2  C   UNL     1       8.190 -27.881  21.259  1.00  0.00     0.050 A 
ATOM      3  C   UNL     1       8.263 -26.602  20.678  1.00  0.00    -0.042 A 
ATOM      4  C   UNL     1       9.417 -25.837  20.885  1.00  0.00     0.004 A 
ATOM      5  C   UNL     1      10.472 -26.335  21.650  1.00  0.00     0.007 A 
ATOM      6  C   UNL     1      10.396 -27.610  22.226  1.00  0.00    -0.009 A 
ATOM      7  C   UNL     1      11.545 -28.128  23.046  1.00  0.00     0.048 C 
ENDROOT
BRANCH   1   8
ATOM      8  O   UNL     1       9.257 -29.622  22.629  1.00  0.00    -0.481 OA
BRANCH   8   9
ATOM      9  C   UNL     1       8.006 -30.186  23.012  1.00  0.00     0.318 C 
ATOM     10  C   UNL     1       7.808 -31.446  22.280  1.00  0.00    -0.065 C 
ATOM     11  C   UNL     1       7.646 -32.475  21.682  1.00  0.00     0.007 C 
ENDBRANCH   8   9
ENDBRANCH   1   8
BRANCH   3  12
ATOM     12  C   UNL     1       7.102 -26.080  19.850  1.00  0.00     0.013 C 
ATOM     13  C   UNL     1       5.981 -27.116  19.737  1.00  0.00     0.012 C 
ATOM     14  C   UNL     1       7.560 -25.619  18.465  1.00  0.00     0.012 C 
ENDBRANCH   3  12
TORSDOF 3
ENDMDL
