MODEL 1
REMARK VINA RESULT:    -5.065      0.000      0.000
REMARK INTER + INTRA:          -6.651
REMARK INTER:                  -6.101
REMARK INTRA:                  -0.550
REMARK UNBOUND:                -0.550
REMARK SMILES CC(=O)Oc1ccccc1C(=O)O
REMARK SMILES IDX 5 1 6 2 7 3 8 4 9 5 10 6 4 7 2 8 3 9 1 10 11 11 12 12 13 13
REMARK H PARENT 13 14
ROOT
ATOM      1  C   UNL     1       6.082 -26.019  20.246  1.00  0.00     0.145 A 
ATOM      2  C   UNL     1       6.432 -26.143  21.595  1.00  0.00     0.048 A 
ATOM      3  C   UNL     1       7.773 -26.279  21.950  1.00  0.00     0.004 A 
ATOM      4  C   UNL     1       8.756 -26.303  20.960  1.00  0.00     0.001 A 
ATOM      5  C   UNL     1       8.401 -26.197  19.612  1.00  0.00     0.019 A 
ATOM      6  C   UNL     1       7.055 -26.060  19.237  1.00  0.00     0.102 A 
ENDROOT
BRANCH   1   7
ATOM      7  O   UNL     1       4.719 -25.915  19.957  1.00  0.00    -0.426 OA
BRANCH   7   8
ATOM      8  C   UNL     1       4.236 -24.620  20.115  1.00  0.00     0.308 C 
ATOM      9  O   UNL     1       4.647 -23.613  19.553  1.00  0.00    -0.252 OA
ATOM     10  C   UNL     1       3.125 -24.636  21.121  1.00  0.00     0.139 C 
ENDBRANCH   7   8
ENDBRANCH   1   7
BRANCH   6  11
ATOM     11  C   UNL     1       6.668 -25.976  17.804  1.00  0.00     0.339 C 
ATOM     12  O   UNL     1       6.963 -25.100  17.013  1.00  0.00    -0.246 OA
BRANCH  11  13
ATOM     13  O   UNL     1       5.904 -27.016  17.415  1.00  0.00    -0.478 OA
ATOM     14  H   UNL     1       5.127 -26.970  18.009  1.00  0.00     0.297 HD
ENDBRANCH  11  13
ENDBRANCH   6  11
TORSDOF 4
ENDMDL
MODEL 2
REMARK VINA RESULT:    -5.019      1.608      3.470
REMARK INTER + INTRA:          -6.596
REMARK INTER:                  -6.078
REMARK INTRA:                  -0.518
REMARK UNBOUND:                -0.550
REMARK SMILES CC(=O)Oc1ccccc1C(=O)O
REMARK SMILES IDX 5 1 6 2 7 3 8 4 9 5 10 6 4 7 2 8 3 9 1 10 11 11 12 12 13 13
REMARK H PARENT 13 14
ROOT
ATOM      1  C   UNL     1       6.274 -26.536  20.353  1.00  0.00     0.145 A 
ATOM      2  C   UNL     1       5.769 -26.321  21.640  1.00  0.00     0.048 A 
ATOM      3  C   UNL     1       4.685 -25.464  21.823  1.00  0.00     0.004 A 
ATOM      4  C   UNL     1       4.118 -24.816  20.725  1.00  0.00     0.001 A 
ATOM      5  C   UNL     1       4.637 -25.018  19.442  1.00  0.00     0.019 A 
ATOM      6  C   UNL     1       5.728 -25.878  19.241  1.00  0.00     0.102 A 
ENDROOT
BRANCH   1   7
ATOM      7  O   UNL     1       7.379 -27.384  20.244  1.00  0.00    -0.426 OA
BRANCH   7   8
ATOM      8  C   UNL     1       8.572 -26.753  20.580  1.00  0.00     0.308 C 
ATOM      9  O   UNL     1       8.954 -25.658  20.190  1.00  0.00    -0.252 OA
ATOM     10  C   UNL     1       9.353 -27.648  21.495  1.00  0.00     0.139 C 
ENDBRANCH   7   8
ENDBRANCH   1   7
BRANCH   6  11
ATOM     11  C   UNL     1       6.304 -26.075  17.884  1.00  0.00     0.339 C 
ATOM     12  O   UNL     1       6.861 -25.242  17.194  1.00  0.00    -0.246 OA
BRANCH  11  13
ATOM     13  O   UNL     1       6.150 -27.337  17.437  1.00  0.00    -0.478 OA
ATOM     14  H   UNL     1       5.185 -27.490  17.498  1.00  0.00     0.297 HD
ENDBRANCH  11  13
ENDBRANCH   6  11
TORSDOF 4
ENDMDL
MODEL 3
REMARK VINA RESULT:    -4.961      6.449      7.844
REMARK INTER + INTRA:          -6.526
REMARK INTER:                  -5.814
REMARK INTRA:                  -0.712
REMARK UNBOUND:                -0.550
REMARK SMILES CC(=O)Oc1ccccc1C(=O)O
REMARK SMILES IDX 5 1 6 2 7 3 8 4 9 5 10 6 4 7 2 8 3 9 1 10 11 11 12 12 13 13
REMARK H PARENT 13 14
ROOT
ATOM      1  C   UNL     1      11.822 -26.294  24.077  1.00  0.00     0.145 A 
ATOM      2  C   UNL     1      11.059 -25.136  23.892  1.00  0.00     0.048 A 
ATOM      3  C   UNL     1      11.640 -24.013  23.304  1.00  0.00     0.004 A 
ATOM      4  C   UNL     1      12.980 -24.046  22.916  1.00  0.00     0.001 A 
ATOM      5  C   UNL     1      13.744 -25.199  23.119  1.00  0.00     0.019 A 
ATOM      6  C   UNL     1      13.175 -26.338  23.710  1.00  0.00     0.102 A 
ENDROOT
BRANCH   1   7
ATOM      7  O   UNL     1      11.187 -27.373  24.698  1.00  0.00    -0.426 OA
BRANCH   7   8
ATOM      8  C   UNL     1      10.350 -28.070  23.833  1.00  0.00     0.308 C 
ATOM      9  O   UNL     1      10.660 -28.570  22.760  1.00  0.00    -0.252 OA
ATOM     10  C   UNL     1       8.967 -28.097  24.414  1.00  0.00     0.139 C 
ENDBRANCH   7   8
ENDBRANCH   1   7
BRANCH   6  11
ATOM     11  C   UNL     1      13.989 -27.557  23.957  1.00  0.00     0.339 C 
ATOM     12  O   UNL     1      14.874 -27.696  24.781  1.00  0.00    -0.246 OA
BRANCH  11  13
ATOM     13  O   UNL     1      13.657 -28.574  23.138  1.00  0.00    -0.478 OA
ATOM     14  H   UNL     1      12.808 -28.287  22.742  1.00  0.00     0.297 HD
ENDBRANCH  11  13
ENDBRANCH   6  11
TORSDOF 4
ENDMDL
MODEL 4
REMARK VINA RESULT:    -4.805      1.994      3.635
REMARK INTER + INTRA:          -6.339
REMARK INTER:                  -5.627
REMARK INTRA:                  -0.712
REMARK UNBOUND:                -0.550
REMARK SMILES CC(=O)Oc1ccccc1C(=O)O
REMARK SMILES IDX 5 1 6 2 7 3 8 4 9 5 10 6 4 7 2 8 3 9 1 10 11 11 12 12 13 13
REMARK H PARENT 13 14
ROOT
ATOM      1  C   UNL     1       6.117 -26.769  20.556  1.00  0.00     0.145 A 
ATOM      2  C   UNL     1       5.562 -26.479  21.807  1.00  0.00     0.048 A 
ATOM      3  C   UNL     1       4.530 -25.548  21.905  1.00  0.00     0.004 A 
ATOM      4  C   UNL     1       4.064 -24.902  20.759  1.00  0.00     0.001 A 
ATOM      5  C   UNL     1       4.633 -25.181  19.512  1.00  0.00     0.019 A 
ATOM      6  C   UNL     1       5.674 -26.116  19.396  1.00  0.00     0.102 A 
ENDROOT
BRANCH   1   7
ATOM      7  O   UNL     1       7.167 -27.690  20.532  1.00  0.00    -0.426 OA
BRANCH   7   8
ATOM      8  C   UNL     1       6.736 -28.998  20.726  1.00  0.00     0.308 C 
ATOM      9  O   UNL     1       5.891 -29.594  20.072  1.00  0.00    -0.252 OA
ATOM     10  C   UNL     1       7.461 -29.578  21.904  1.00  0.00     0.139 C 
ENDBRANCH   7   8
ENDBRANCH   1   7
BRANCH   6  11
ATOM     11  C   UNL     1       6.303 -26.396  18.079  1.00  0.00     0.339 C 
ATOM     12  O   UNL     1       7.021 -25.654  17.435  1.00  0.00    -0.246 OA
BRANCH  11  13
ATOM     13  O   UNL     1       5.997 -27.622  17.611  1.00  0.00    -0.478 OA
ATOM     14  H   UNL     1       5.194 -27.471  17.069  1.00  0.00     0.297 HD
ENDBRANCH  11  13
ENDBRANCH   6  11
TORSDOF 4
ENDMDL
MODEL 5
REMARK VINA RESULT:    -4.718      5.150      6.317
REMARK INTER + INTRA:          -6.234
REMARK INTER:                  -5.515
REMARK INTRA:                  -0.719
REMARK UNBOUND:                -0.550
REMARK SMILES CC(=O)Oc1ccccc1C(=O)O
REMARK SMILES IDX 5 1 6 2 7 3 8 4 9 5 10 6 4 7 2 8 3 9 1 10 11 11 12 12 13 13
REMARK H PARENT 13 14
ROOT
ATOM      1  C   UNL     1      11.824 -25.908  22.738  1.00  0.00     0.145 A 
ATOM      2  C   UNL     1      13.041 -25.271  23.006  1.00  0.00     0.048 A 
ATOM      3  C   UNL     1      14.239 -25.922  22.717  1.00  0.00     0.004 A 
ATOM      4  C   UNL     1      14.220 -27.207  22.176  1.00  0.00     0.001 A 
ATOM      5  C   UNL     1      13.002 -27.848  21.926  1.00  0.00     0.019 A 
ATOM      6  C   UNL     1      11.786 -27.207  22.211  1.00  0.00     0.102 A 
ENDROOT
BRANCH   1   7
ATOM      7  O   UNL     1      10.662 -25.212  23.078  1.00  0.00    -0.426 OA
BRANCH   7   8
ATOM      8  C   UNL     1      10.363 -24.196  22.176  1.00  0.00     0.308 C 
ATOM      9  O   UNL     1      10.188 -24.318  20.970  1.00  0.00    -0.252 OA
ATOM     10  C   UNL     1      10.311 -22.891  22.913  1.00  0.00     0.139 C 
ENDBRANCH   7   8
ENDBRANCH   1   7
BRANCH   6  11
ATOM     11  C   UNL     1      10.489 -27.894  21.976  1.00  0.00     0.339 C 
ATOM     12  O   UNL     1      10.040 -28.846  22.587  1.00  0.00    -0.246 OA
BRANCH  11  13
ATOM     13  O   UNL     1       9.793 -27.348  20.959  1.00  0.00    -0.478 OA
ATOM     14  H   UNL     1      10.476 -26.882  20.434  1.00  0.00     0.297 HD
ENDBRANCH  11  13
ENDBRANCH   6  11
TORSDOF 4
ENDMDL
MODEL 6
REMARK VINA RESULT:    -4.637      6.349      8.348
REMARK INTER + INTRA:          -6.136
REMARK INTER:                  -5.700
REMARK INTRA:                  -0.436
REMARK UNBOUND:                -0.550
REMARK SMILES CC(=O)Oc1ccccc1C(=O)O
REMARK SMILES IDX 5 1 6 2 7 3 8 4 9 5 10 6 4 7 2 8 3 9 1 10 11 11 12 12 13 13
REMARK H PARENT 13 14
ROOT
ATOM      1  C   UNL     1      12.363 -25.724  23.435  1.00  0.00     0.145 A 
ATOM      2  C   UNL     1      13.363 -24.895  22.914  1.00  0.00     0.048 A 
ATOM      3  C   UNL     1      13.211 -23.511  22.972  1.00  0.00     0.004 A 
ATOM      4  C   UNL     1      12.060 -22.960  23.535  1.00  0.00     0.001 A 
ATOM      5  C   UNL     1      11.054 -23.791  24.038  1.00  0.00     0.019 A 
ATOM      6  C   UNL     1      11.191 -25.187  23.987  1.00  0.00     0.102 A 
ENDROOT
BRANCH   1   7
ATOM      7  O   UNL     1      12.564 -27.102  23.319  1.00  0.00    -0.426 OA
BRANCH   7   8
ATOM      8  C   UNL     1      13.737 -27.524  23.934  1.00  0.00     0.308 C 
ATOM      9  O   UNL     1      14.174 -27.145  25.013  1.00  0.00    -0.252 OA
ATOM     10  C   UNL     1      14.420 -28.521  23.045  1.00  0.00     0.139 C 
ENDBRANCH   7   8
ENDBRANCH   1   7
BRANCH   6  11
ATOM     11  C   UNL     1      10.112 -26.077  24.493  1.00  0.00     0.339 C 
ATOM     12  O   UNL     1       8.936 -26.054  24.184  1.00  0.00    -0.246 OA
BRANCH  11  13
ATOM     13  O   UNL     1      10.564 -26.978  25.388  1.00  0.00    -0.478 OA
ATOM     14  H   UNL     1       9.775 -27.180  25.932  1.00  0.00     0.297 HD
ENDBRANCH  11  13
ENDBRANCH   6  11
TORSDOF 4
ENDMDL
MODEL 7
REMARK VINA RESULT:    -4.632      5.568      7.557
REMARK INTER + INTRA:          -6.130
REMARK INTER:                  -5.529
REMARK INTRA:                  -0.601
REMARK UNBOUND:                -0.550
REMARK SMILES CC(=O)Oc1ccccc1C(=O)O
REMARK SMILES IDX 5 1 6 2 7 3 8 4 9 5 10 6 4 7 2 8 3 9 1 10 11 11 12 12 13 13
REMARK H PARENT 13 14
ROOT
ATOM      1  C   UNL     1      12.330 -26.281  22.962  1.00  0.00     0.145 A 
ATOM      2  C   UNL     1      13.294 -25.301  23.219  1.00  0.00     0.048 A 
ATOM      3  C   UNL     1      13.067 -23.987  22.814  1.00  0.00     0.004 A 
ATOM      4  C   UNL     1      11.889 -23.659  22.143  1.00  0.00     0.001 A 
ATOM      5  C   UNL     1      10.935 -24.645  21.871  1.00  0.00     0.019 A 
ATOM      6  C   UNL     1      11.148 -25.973  22.272  1.00  0.00     0.102 A 
ENDROOT
BRANCH   1   7
ATOM      7  O   UNL     1      12.632 -27.583  23.369  1.00  0.00    -0.426 OA
BRANCH   7   8
ATOM      8  C   UNL     1      13.678 -28.141  22.642  1.00  0.00     0.308 C 
ATOM      9  O   UNL     1      13.831 -28.096  21.429  1.00  0.00    -0.252 OA
ATOM     10  C   UNL     1      14.603 -28.848  23.588  1.00  0.00     0.139 C 
ENDBRANCH   7   8
ENDBRANCH   1   7
BRANCH   6  11
ATOM     11  C   UNL     1      10.152 -27.032  21.961  1.00  0.00     0.339 C 
ATOM     12  O   UNL     1       8.960 -27.015  22.205  1.00  0.00    -0.246 OA
BRANCH  11  13
ATOM     13  O   UNL     1      10.705 -28.096  21.346  1.00  0.00    -0.478 OA
ATOM     14  H   UNL     1      11.442 -28.351  21.939  1.00  0.00     0.297 HD
ENDBRANCH  11  13
ENDBRANCH   6  11
TORSDOF 4
ENDMDL
MODEL 8
REMARK VINA RESULT:    -4.596      5.496      6.821
REMARK INTER + INTRA:          -6.087
REMARK INTER:                  -5.367
REMARK INTRA:                  -0.720
REMARK UNBOUND:                -0.550
REMARK SMILES CC(=O)Oc1ccccc1C(=O)O
REMARK SMILES IDX 5 1 6 2 7 3 8 4 9 5 10 6 4 7 2 8 3 9 1 10 11 11 12 12 13 13
REMARK H PARENT 13 14
ROOT
ATOM      1  C   UNL     1      11.798 -25.293  23.946  1.00  0.00     0.145 A 
ATOM      2  C   UNL     1      12.088 -26.489  24.612  1.00  0.00     0.048 A 
ATOM      3  C   UNL     1      13.265 -27.175  24.317  1.00  0.00     0.004 A 
ATOM      4  C   UNL     1      14.139 -26.674  23.353  1.00  0.00     0.001 A 
ATOM      5  C   UNL     1      13.838 -25.488  22.676  1.00  0.00     0.019 A 
ATOM      6  C   UNL     1      12.657 -24.785  22.960  1.00  0.00     0.102 A 
ENDROOT
BRANCH   1   7
ATOM      7  O   UNL     1      10.589 -24.671  24.267  1.00  0.00    -0.426 OA
BRANCH   7   8
ATOM      8  C   UNL     1       9.485 -25.365  23.783  1.00  0.00     0.308 C 
ATOM      9  O   UNL     1       9.274 -25.682  22.620  1.00  0.00    -0.252 OA
ATOM     10  C   UNL     1       8.555 -25.654  24.923  1.00  0.00     0.139 C 
ENDBRANCH   7   8
ENDBRANCH   1   7
BRANCH   6  11
ATOM     11  C   UNL     1      12.315 -23.540  22.223  1.00  0.00     0.339 C 
ATOM     12  O   UNL     1      12.852 -22.453  22.329  1.00  0.00    -0.246 OA
BRANCH  11  13
ATOM     13  O   UNL     1      11.287 -23.711  21.369  1.00  0.00    -0.478 OA
ATOM     14  H   UNL     1      11.613 -23.320  20.531  1.00  0.00     0.297 HD
ENDBRANCH  11  13
ENDBRANCH   6  11
TORSDOF 4
ENDMDL
