MODEL 1
REMARK VINA RESULT:    -7.081      0.000      0.000
REMARK INTER + INTRA:          -9.824
REMARK INTER:                  -9.151
REMARK INTRA:                  -0.673
REMARK UNBOUND:                -0.673
REMARK SMILES Cc1ccc(C(C)C)cc1OCc1cc(-c2ccccc2)no1
REMARK SMILES IDX 11 1 10 2 2 3 3 4 4 5 9 6 5 7 1 8 6 9 7 10 8 11 12 12 13 13
REMARK SMILES IDX 14 14 23 15 15 16 22 17 16 18 17 19 21 20 18 21 20 22 19 23
REMARK H PARENT
ROOT
ATOM      1  O   UNL     1      11.926 -27.503  24.808  1.00  0.00    -0.485 OA
ENDROOT
BRANCH   1   2
ATOM      2  C   UNL     1      12.581 -26.568  24.047  1.00  0.00     0.123 A 
ATOM      3  C   UNL     1      13.673 -27.046  23.304  1.00  0.00    -0.009 A 
ATOM      4  C   UNL     1      14.387 -26.159  22.486  1.00  0.00     0.007 A 
ATOM      5  C   UNL     1      14.015 -24.818  22.397  1.00  0.00     0.004 A 
ATOM      6  C   UNL     1      12.207 -25.224  23.941  1.00  0.00     0.050 A 
ATOM      7  C   UNL     1      12.919 -24.333  23.119  1.00  0.00    -0.042 A 
ATOM      8  C   UNL     1      14.087 -28.489  23.380  1.00  0.00     0.048 C 
BRANCH   7   9
ATOM      9  C   UNL     1      12.518 -22.873  22.993  1.00  0.00     0.013 C 
ATOM     10  C   UNL     1      11.284 -22.555  23.843  1.00  0.00     0.012 C 
ATOM     11  C   UNL     1      13.677 -21.938  23.343  1.00  0.00     0.012 C 
ENDBRANCH   7   9
ENDBRANCH   1   2
BRANCH   1  12
ATOM     12  C   UNL     1      10.502 -27.408  24.922  1.00  0.00     0.307 C 
BRANCH  12  13
ATOM     13  C   UNL     1       9.896 -27.525  23.578  1.00  0.00     0.174 A 
ATOM     14  C   UNL     1       9.016 -26.774  22.838  1.00  0.00     0.081 A 
ATOM     15  O   UNL     1      10.253 -28.618  22.856  1.00  0.00    -0.357 OA
ATOM     16  C   UNL     1       8.849 -27.487  21.620  1.00  0.00     0.114 A 
ATOM     17  N   UNL     1       9.606 -28.599  21.640  1.00  0.00    -0.079 NA
BRANCH  16  18
ATOM     18  C   UNL     1       8.009 -27.143  20.468  1.00  0.00     0.004 A 
ATOM     19  C   UNL     1       8.492 -26.290  19.461  1.00  0.00     0.010 A 
ATOM     20  C   UNL     1       6.710 -27.655  20.339  1.00  0.00     0.010 A 
ATOM     21  C   UNL     1       7.697 -25.957  18.361  1.00  0.00     0.001 A 
ATOM     22  C   UNL     1       5.915 -27.322  19.237  1.00  0.00     0.001 A 
ATOM     23  C   UNL     1       6.408 -26.472  18.250  1.00  0.00     0.000 A 
ENDBRANCH  16  18
ENDBRANCH  12  13
ENDBRANCH   1  12
TORSDOF 5
ENDMDL
MODEL 2
REMARK VINA RESULT:    -6.750      3.240      4.626
REMARK INTER + INTRA:          -9.396
REMARK INTER:                  -8.666
REMARK INTRA:                  -0.731
REMARK UNBOUND:                -0.673
REMARK SMILES Cc1ccc(C(C)C)cc1OCc1cc(-c2ccccc2)no1
REMARK SMILES IDX 11 1 10 2 2 3 3 4 4 5 9 6 5 7 1 8 6 9 7 10 8 11 12 12 13 13
REMARK SMILES IDX 14 14 23 15 15 16 22 17 16 18 17 19 21 20 18 21 20 22 19 23
REMARK H PARENT
ROOT
ATOM      1  O   UNL     1       9.572 -26.055  24.342  1.00  0.00    -0.485 OA
ENDROOT
BRANCH   1   2
ATOM      2  C   UNL     1      10.826 -25.677  23.934  1.00  0.00     0.123 A 
ATOM      3  C   UNL     1      11.048 -24.292  23.856  1.00  0.00    -0.009 A 
ATOM      4  C   UNL     1      12.308 -23.820  23.465  1.00  0.00     0.007 A 
ATOM      5  C   UNL     1      13.339 -24.711  23.165  1.00  0.00     0.004 A 
ATOM      6  C   UNL     1      11.870 -26.562  23.644  1.00  0.00     0.050 A 
ATOM      7  C   UNL     1      13.136 -26.092  23.254  1.00  0.00    -0.042 A 
ATOM      8  C   UNL     1       9.953 -23.314  24.182  1.00  0.00     0.048 C 
BRANCH   7   9
ATOM      9  C   UNL     1      14.277 -27.045  22.942  1.00  0.00     0.013 C 
ATOM     10  C   UNL     1      14.486 -28.059  24.070  1.00  0.00     0.012 C 
ATOM     11  C   UNL     1      14.070 -27.753  21.602  1.00  0.00     0.012 C 
ENDBRANCH   7   9
ENDBRANCH   1   2
BRANCH   1  12
ATOM     12  C   UNL     1       9.457 -26.883  25.504  1.00  0.00     0.307 C 
BRANCH  12  13
ATOM     13  C   UNL     1       8.766 -28.139  25.141  1.00  0.00     0.174 A 
ATOM     14  C   UNL     1       8.575 -28.845  23.978  1.00  0.00     0.081 A 
ATOM     15  O   UNL     1       8.149 -28.795  26.157  1.00  0.00    -0.357 OA
ATOM     16  C   UNL     1       7.790 -29.970  24.349  1.00  0.00     0.114 A 
ATOM     17  N   UNL     1       7.543 -29.933  25.670  1.00  0.00    -0.079 NA
BRANCH  16  18
ATOM     18  C   UNL     1       7.285 -31.051  23.497  1.00  0.00     0.004 A 
ATOM     19  C   UNL     1       7.813 -31.254  22.210  1.00  0.00     0.010 A 
ATOM     20  C   UNL     1       6.269 -31.911  23.941  1.00  0.00     0.010 A 
ATOM     21  C   UNL     1       7.336 -32.282  21.393  1.00  0.00     0.001 A 
ATOM     22  C   UNL     1       5.792 -32.939  23.122  1.00  0.00     0.001 A 
ATOM     23  C   UNL     1       6.325 -33.124  21.848  1.00  0.00     0.000 A 
ENDBRANCH  16  18
ENDBRANCH  12  13
ENDBRANCH   1  12
TORSDOF 5
ENDMDL
MODEL 3
REMARK VINA RESULT:    -6.721      3.965      5.865
REMARK INTER + INTRA:          -9.358
REMARK INTER:                  -8.701
REMARK INTRA:                  -0.657
REMARK UNBOUND:                -0.673
REMARK SMILES Cc1ccc(C(C)C)cc1OCc1cc(-c2ccccc2)no1
REMARK SMILES IDX 11 1 10 2 2 3 3 4 4 5 9 6 5 7 1 8 6 9 7 10 8 11 12 12 13 13
REMARK SMILES IDX 14 14 23 15 15 16 22 17 16 18 17 19 21 20 18 21 20 22 19 23
REMARK H PARENT
ROOT
ATOM      1  O   UNL     1       9.237 -27.361  22.846  1.00  0.00    -0.485 OA
ENDROOT
BRANCH   1   2
ATOM      2  C   UNL     1      10.492 -26.840  23.037  1.00  0.00     0.123 A 
ATOM      3  C   UNL     1      10.541 -25.595  23.686  1.00  0.00    -0.009 A 
ATOM      4  C   UNL     1      11.786 -25.001  23.937  1.00  0.00     0.007 A 
ATOM      5  C   UNL     1      12.967 -25.640  23.559  1.00  0.00     0.004 A 
ATOM      6  C   UNL     1      11.683 -27.479  22.674  1.00  0.00     0.050 A 
ATOM      7  C   UNL     1      12.932 -26.887  22.928  1.00  0.00    -0.042 A 
ATOM      8  C   UNL     1       9.281 -24.893  24.108  1.00  0.00     0.048 C 
BRANCH   7   9
ATOM      9  C   UNL     1      14.231 -27.574  22.542  1.00  0.00     0.013 C 
ATOM     10  C   UNL     1      14.499 -28.801  23.420  1.00  0.00     0.012 C 
ATOM     11  C   UNL     1      14.253 -27.949  21.059  1.00  0.00     0.012 C 
ENDBRANCH   7   9
ENDBRANCH   1   2
BRANCH   1  12
ATOM     12  C   UNL     1       9.091 -28.467  21.950  1.00  0.00     0.307 C 
BRANCH  12  13
ATOM     13  C   UNL     1       8.489 -29.606  22.677  1.00  0.00     0.174 A 
ATOM     14  C   UNL     1       7.818 -29.758  23.865  1.00  0.00     0.081 A 
ATOM     15  O   UNL     1       8.598 -30.820  22.079  1.00  0.00    -0.357 OA
ATOM     16  C   UNL     1       7.534 -31.146  23.960  1.00  0.00     0.114 A 
ATOM     17  N   UNL     1       8.005 -31.779  22.870  1.00  0.00    -0.079 NA
BRANCH  16  18
ATOM     18  C   UNL     1       6.841 -31.866  25.033  1.00  0.00     0.004 A 
ATOM     19  C   UNL     1       5.712 -32.655  24.752  1.00  0.00     0.010 A 
ATOM     20  C   UNL     1       7.284 -31.790  26.362  1.00  0.00     0.010 A 
ATOM     21  C   UNL     1       5.046 -33.344  25.770  1.00  0.00     0.001 A 
ATOM     22  C   UNL     1       6.616 -32.479  27.380  1.00  0.00     0.001 A 
ATOM     23  C   UNL     1       5.498 -33.254  27.083  1.00  0.00     0.000 A 
ENDBRANCH  16  18
ENDBRANCH  12  13
ENDBRANCH   1  12
TORSDOF 5
ENDMDL
MODEL 4
REMARK VINA RESULT:    -6.701      3.720      6.395
REMARK INTER + INTRA:          -9.332
REMARK INTER:                  -8.510
REMARK INTRA:                  -0.822
REMARK UNBOUND:                -0.673
REMARK SMILES Cc1ccc(C(C)C)cc1OCc1cc(-c2ccccc2)no1
REMARK SMILES IDX 11 1 10 2 2 3 3 4 4 5 9 6 5 7 1 8 6 9 7 10 8 11 12 12 13 13
REMARK SMILES IDX 14 14 23 15 15 16 22 17 16 18 17 19 21 20 18 21 20 22 19 23
REMARK H PARENT
ROOT
ATOM      1  O   UNL     1       8.538 -26.258  19.788  1.00  0.00    -0.485 OA
ENDROOT
BRANCH   1   2
ATOM      2  C   UNL     1       7.513 -25.357  19.919  1.00  0.00     0.123 A 
ATOM      3  C   UNL     1       6.366 -25.625  19.153  1.00  0.00    -0.009 A 
ATOM      4  C   UNL     1       5.264 -24.762  19.243  1.00  0.00     0.007 A 
ATOM      5  C   UNL     1       5.296 -23.654  20.090  1.00  0.00     0.004 A 
ATOM      6  C   UNL     1       7.530 -24.250  20.776  1.00  0.00     0.050 A 
ATOM      7  C   UNL     1       6.426 -23.385  20.870  1.00  0.00    -0.042 A 
ATOM      8  C   UNL     1       6.307 -26.817  18.240  1.00  0.00     0.048 C 
BRANCH   7   9
ATOM      9  C   UNL     1       6.433 -22.184  21.800  1.00  0.00     0.013 C 
ATOM     10  C   UNL     1       7.711 -21.356  21.637  1.00  0.00     0.012 C 
ATOM     11  C   UNL     1       5.190 -21.314  21.607  1.00  0.00     0.012 C 
ENDBRANCH   7   9
ENDBRANCH   1   2
BRANCH   1  12
ATOM     12  C   UNL     1       9.358 -26.524  20.929  1.00  0.00     0.307 C 
BRANCH  12  13
ATOM     13  C   UNL     1       8.969 -27.825  21.518  1.00  0.00     0.174 A 
ATOM     14  C   UNL     1       7.818 -28.572  21.550  1.00  0.00     0.081 A 
ATOM     15  O   UNL     1       9.937 -28.482  22.205  1.00  0.00    -0.357 OA
ATOM     16  C   UNL     1       8.143 -29.725  22.314  1.00  0.00     0.114 A 
ATOM     17  N   UNL     1       9.430 -29.663  22.701  1.00  0.00    -0.079 NA
BRANCH  16  18
ATOM     18  C   UNL     1       7.281 -30.856  22.674  1.00  0.00     0.004 A 
ATOM     19  C   UNL     1       6.777 -31.714  21.682  1.00  0.00     0.010 A 
ATOM     20  C   UNL     1       6.939 -31.112  24.011  1.00  0.00     0.010 A 
ATOM     21  C   UNL     1       5.954 -32.793  22.017  1.00  0.00     0.001 A 
ATOM     22  C   UNL     1       6.116 -32.191  24.345  1.00  0.00     0.001 A 
ATOM     23  C   UNL     1       5.623 -33.031  23.349  1.00  0.00     0.000 A 
ENDBRANCH  16  18
ENDBRANCH  12  13
ENDBRANCH   1  12
TORSDOF 5
ENDMDL
MODEL 5
REMARK VINA RESULT:    -6.666      4.444      8.276
REMARK INTER + INTRA:          -9.288
REMARK INTER:                  -8.662
REMARK INTRA:                  -0.626
REMARK UNBOUND:                -0.673
REMARK SMILES Cc1ccc(C(C)C)cc1OCc1cc(-c2ccccc2)no1
REMARK SMILES IDX 11 1 10 2 2 3 3 4 4 5 9 6 5 7 1 8 6 9 7 10 8 11 12 12 13 13
REMARK SMILES IDX 14 14 23 15 15 16 22 17 16 18 17 19 21 20 18 21 20 22 19 23
REMARK H PARENT
ROOT
ATOM      1  O   UNL     1       7.816 -31.147  22.582  1.00  0.00    -0.485 OA
ENDROOT
BRANCH   1   2
ATOM      2  C   UNL     1       7.005 -31.788  23.484  1.00  0.00     0.123 A 
ATOM      3  C   UNL     1       6.034 -32.640  22.931  1.00  0.00    -0.009 A 
ATOM      4  C   UNL     1       5.175 -33.347  23.784  1.00  0.00     0.007 A 
ATOM      5  C   UNL     1       5.285 -33.217  25.169  1.00  0.00     0.004 A 
ATOM      6  C   UNL     1       7.115 -31.675  24.875  1.00  0.00     0.050 A 
ATOM      7  C   UNL     1       6.257 -32.384  25.733  1.00  0.00    -0.042 A 
ATOM      8  C   UNL     1       5.904 -32.800  21.442  1.00  0.00     0.048 C 
BRANCH   7   9
ATOM      9  C   UNL     1       6.372 -32.273  27.243  1.00  0.00     0.013 C 
ATOM     10  C   UNL     1       5.628 -33.411  27.948  1.00  0.00     0.012 C 
ATOM     11  C   UNL     1       7.832 -32.213  27.696  1.00  0.00     0.012 C 
ENDBRANCH   7   9
ENDBRANCH   1   2
BRANCH   1  12
ATOM     12  C   UNL     1       7.578 -29.761  22.320  1.00  0.00     0.307 C 
BRANCH  12  13
ATOM     13  C   UNL     1       8.779 -28.981  22.692  1.00  0.00     0.174 A 
ATOM     14  C   UNL     1       9.890 -28.527  22.024  1.00  0.00     0.081 A 
ATOM     15  O   UNL     1       8.863 -28.598  23.991  1.00  0.00    -0.357 OA
ATOM     16  C   UNL     1      10.664 -27.850  23.004  1.00  0.00     0.114 A 
ATOM     17  N   UNL     1      10.031 -27.895  24.191  1.00  0.00    -0.079 NA
BRANCH  16  18
ATOM     18  C   UNL     1      11.958 -27.179  22.843  1.00  0.00     0.004 A 
ATOM     19  C   UNL     1      12.185 -25.917  23.419  1.00  0.00     0.010 A 
ATOM     20  C   UNL     1      13.000 -27.774  22.117  1.00  0.00     0.010 A 
ATOM     21  C   UNL     1      13.415 -25.270  23.269  1.00  0.00     0.001 A 
ATOM     22  C   UNL     1      14.230 -27.127  21.967  1.00  0.00     0.001 A 
ATOM     23  C   UNL     1      14.436 -25.875  22.542  1.00  0.00     0.000 A 
ENDBRANCH  16  18
ENDBRANCH  12  13
ENDBRANCH   1  12
TORSDOF 5
ENDMDL
MODEL 6
REMARK VINA RESULT:    -6.664      2.482      7.136
REMARK INTER + INTRA:          -9.285
REMARK INTER:                  -8.435
REMARK INTRA:                  -0.849
REMARK UNBOUND:                -0.673
REMARK SMILES Cc1ccc(C(C)C)cc1OCc1cc(-c2ccccc2)no1
REMARK SMILES IDX 11 1 10 2 2 3 3 4 4 5 9 6 5 7 1 8 6 9 7 10 8 11 12 12 13 13
REMARK SMILES IDX 14 14 23 15 15 16 22 17 16 18 17 19 21 20 18 21 20 22 19 23
REMARK H PARENT
ROOT
ATOM      1  O   UNL     1       6.801 -28.045  20.517  1.00  0.00    -0.485 OA
ENDROOT
BRANCH   1   2
ATOM      2  C   UNL     1       6.212 -26.823  20.317  1.00  0.00     0.123 A 
ATOM      3  C   UNL     1       6.800 -26.018  19.326  1.00  0.00    -0.009 A 
ATOM      4  C   UNL     1       6.249 -24.760  19.047  1.00  0.00     0.007 A 
ATOM      5  C   UNL     1       5.120 -24.311  19.733  1.00  0.00     0.004 A 
ATOM      6  C   UNL     1       5.072 -26.368  20.990  1.00  0.00     0.050 A 
ATOM      7  C   UNL     1       4.515 -25.109  20.710  1.00  0.00    -0.042 A 
ATOM      8  C   UNL     1       8.012 -26.487  18.570  1.00  0.00     0.048 C 
BRANCH   7   9
ATOM      9  C   UNL     1       3.276 -24.608  21.432  1.00  0.00     0.013 C 
ATOM     10  C   UNL     1       3.618 -23.498  22.430  1.00  0.00     0.012 C 
ATOM     11  C   UNL     1       2.198 -24.145  20.449  1.00  0.00     0.012 C 
ENDBRANCH   7   9
ENDBRANCH   1   2
BRANCH   1  12
ATOM     12  C   UNL     1       7.070 -28.457  21.860  1.00  0.00     0.307 C 
BRANCH  12  13
ATOM     13  C   UNL     1       8.509 -28.272  22.148  1.00  0.00     0.174 A 
ATOM     14  C   UNL     1       9.436 -27.292  21.890  1.00  0.00     0.081 A 
ATOM     15  O   UNL     1       9.117 -29.282  22.822  1.00  0.00    -0.357 OA
ATOM     16  C   UNL     1      10.653 -27.775  22.440  1.00  0.00     0.114 A 
ATOM     17  N   UNL     1      10.448 -28.977  23.007  1.00  0.00    -0.079 NA
BRANCH  16  18
ATOM     18  C   UNL     1      11.973 -27.134  22.442  1.00  0.00     0.004 A 
ATOM     19  C   UNL     1      12.141 -25.846  22.976  1.00  0.00     0.010 A 
ATOM     20  C   UNL     1      13.097 -27.787  21.914  1.00  0.00     0.010 A 
ATOM     21  C   UNL     1      13.395 -25.229  22.980  1.00  0.00     0.001 A 
ATOM     22  C   UNL     1      14.351 -27.169  21.918  1.00  0.00     0.001 A 
ATOM     23  C   UNL     1      14.500 -25.890  22.450  1.00  0.00     0.000 A 
ENDBRANCH  16  18
ENDBRANCH  12  13
ENDBRANCH   1  12
TORSDOF 5
ENDMDL
MODEL 7
REMARK VINA RESULT:    -6.659      2.922      4.615
REMARK INTER + INTRA:          -9.278
REMARK INTER:                  -8.865
REMARK INTRA:                  -0.414
REMARK UNBOUND:                -0.673
REMARK SMILES Cc1ccc(C(C)C)cc1OCc1cc(-c2ccccc2)no1
REMARK SMILES IDX 11 1 10 2 2 3 3 4 4 5 9 6 5 7 1 8 6 9 7 10 8 11 12 12 13 13
REMARK SMILES IDX 14 14 23 15 15 16 22 17 16 18 17 19 21 20 18 21 20 22 19 23
REMARK H PARENT
ROOT
ATOM      1  O   UNL     1       9.394 -25.455  22.262  1.00  0.00    -0.485 OA
ENDROOT
BRANCH   1   2
ATOM      2  C   UNL     1      10.696 -25.108  22.519  1.00  0.00     0.123 A 
ATOM      3  C   UNL     1      10.915 -23.757  22.837  1.00  0.00    -0.009 A 
ATOM      4  C   UNL     1      12.215 -23.323  23.131  1.00  0.00     0.007 A 
ATOM      5  C   UNL     1      13.283 -24.221  23.121  1.00  0.00     0.004 A 
ATOM      6  C   UNL     1      11.772 -26.003  22.524  1.00  0.00     0.050 A 
ATOM      7  C   UNL     1      13.076 -25.572  22.822  1.00  0.00    -0.042 A 
ATOM      8  C   UNL     1       9.777 -22.775  22.861  1.00  0.00     0.048 C 
BRANCH   7   9
ATOM      9  C   UNL     1      14.250 -26.536  22.836  1.00  0.00     0.013 C 
ATOM     10  C   UNL     1      14.268 -27.380  24.114  1.00  0.00     0.012 C 
ATOM     11  C   UNL     1      14.263 -27.427  21.592  1.00  0.00     0.012 C 
ENDBRANCH   7   9
ENDBRANCH   1   2
BRANCH   1  12
ATOM     12  C   UNL     1       9.121 -26.261  21.112  1.00  0.00     0.307 C 
BRANCH  12  13
ATOM     13  C   UNL     1       8.765 -27.629  21.548  1.00  0.00     0.174 A 
ATOM     14  C   UNL     1       7.597 -28.343  21.655  1.00  0.00     0.081 A 
ATOM     15  O   UNL     1       9.795 -28.412  21.958  1.00  0.00    -0.357 OA
ATOM     16  C   UNL     1       7.980 -29.611  22.168  1.00  0.00     0.114 A 
ATOM     17  N   UNL     1       9.313 -29.644  22.343  1.00  0.00    -0.079 NA
BRANCH  16  18
ATOM     18  C   UNL     1       7.130 -30.763  22.486  1.00  0.00     0.004 A 
ATOM     19  C   UNL     1       6.808 -31.067  23.820  1.00  0.00     0.010 A 
ATOM     20  C   UNL     1       6.615 -31.587  21.475  1.00  0.00     0.010 A 
ATOM     21  C   UNL     1       5.999 -32.164  24.132  1.00  0.00     0.001 A 
ATOM     22  C   UNL     1       5.805 -32.684  21.787  1.00  0.00     0.001 A 
ATOM     23  C   UNL     1       5.499 -32.972  23.115  1.00  0.00     0.000 A 
ENDBRANCH  16  18
ENDBRANCH  12  13
ENDBRANCH   1  12
TORSDOF 5
ENDMDL
MODEL 8
REMARK VINA RESULT:    -6.653      2.985      3.662
REMARK INTER + INTRA:          -9.270
REMARK INTER:                  -8.628
REMARK INTRA:                  -0.642
REMARK UNBOUND:                -0.673
REMARK SMILES Cc1ccc(C(C)C)cc1OCc1cc(-c2ccccc2)no1
REMARK SMILES IDX 11 1 10 2 2 3 3 4 4 5 9 6 5 7 1 8 6 9 7 10 8 11 12 12 13 13
REMARK SMILES IDX 14 14 23 15 15 16 22 17 16 18 17 19 21 20 18 21 20 22 19 23
REMARK H PARENT
ROOT
ATOM      1  O   UNL     1      11.342 -27.361  24.671  1.00  0.00    -0.485 OA
ENDROOT
BRANCH   1   2
ATOM      2  C   UNL     1      12.108 -26.407  24.052  1.00  0.00     0.123 A 
ATOM      3  C   UNL     1      13.292 -26.871  23.455  1.00  0.00    -0.009 A 
ATOM      4  C   UNL     1      14.124 -25.963  22.785  1.00  0.00     0.007 A 
ATOM      5  C   UNL     1      13.780 -24.614  22.698  1.00  0.00     0.004 A 
ATOM      6  C   UNL     1      11.765 -25.054  23.948  1.00  0.00     0.050 A 
ATOM      7  C   UNL     1      12.595 -24.142  23.274  1.00  0.00    -0.042 A 
ATOM      8  C   UNL     1      13.679 -28.322  23.530  1.00  0.00     0.048 C 
BRANCH   7   9
ATOM      9  C   UNL     1      12.229 -22.673  23.152  1.00  0.00     0.013 C 
ATOM     10  C   UNL     1      10.979 -22.336  23.969  1.00  0.00     0.012 C 
ATOM     11  C   UNL     1      13.398 -21.766  23.542  1.00  0.00     0.012 C 
ENDBRANCH   7   9
ENDBRANCH   1   2
BRANCH   1  12
ATOM     12  C   UNL     1       9.927 -27.161  24.733  1.00  0.00     0.307 C 
BRANCH  12  13
ATOM     13  C   UNL     1       9.243 -28.312  24.104  1.00  0.00     0.174 A 
ATOM     14  C   UNL     1       8.216 -29.150  24.464  1.00  0.00     0.081 A 
ATOM     15  O   UNL     1       9.697 -28.677  22.878  1.00  0.00    -0.357 OA
ATOM     16  C   UNL     1       8.081 -30.060  23.382  1.00  0.00     0.114 A 
ATOM     17  N   UNL     1       8.978 -29.762  22.425  1.00  0.00    -0.079 NA
BRANCH  16  18
ATOM     18  C   UNL     1       7.141 -31.177  23.240  1.00  0.00     0.004 A 
ATOM     19  C   UNL     1       7.035 -31.872  22.023  1.00  0.00     0.010 A 
ATOM     20  C   UNL     1       6.329 -31.583  24.309  1.00  0.00     0.010 A 
ATOM     21  C   UNL     1       6.141 -32.937  21.880  1.00  0.00     0.001 A 
ATOM     22  C   UNL     1       5.434 -32.649  24.165  1.00  0.00     0.001 A 
ATOM     23  C   UNL     1       5.340 -33.324  22.951  1.00  0.00     0.000 A 
ENDBRANCH  16  18
ENDBRANCH  12  13
ENDBRANCH   1  12
TORSDOF 5
ENDMDL
