MODEL 1
REMARK VINA RESULT:    -5.067      0.000      0.000
REMARK INTER + INTRA:          -6.654
REMARK INTER:                  -6.104
REMARK INTRA:                  -0.550
REMARK UNBOUND:                -0.550
REMARK SMILES CC(=O)Oc1ccccc1C(=O)O
REMARK SMILES IDX 5 1 6 2 7 3 8 4 9 5 10 6 4 7 2 8 3 9 1 10 11 11 12 12 13 13
REMARK H PARENT 13 14
ROOT
ATOM      1  C   UNL     1       6.092 -26.009  20.242  1.00  0.00     0.145 A 
ATOM      2  C   UNL     1       6.456 -26.132  21.588  1.00  0.00     0.048 A 
ATOM      3  C   UNL     1       7.802 -26.253  21.930  1.00  0.00     0.004 A 
ATOM      4  C   UNL     1       8.776 -26.264  20.931  1.00  0.00     0.001 A 
ATOM      5  C   UNL     1       8.407 -26.159  19.586  1.00  0.00     0.019 A 
ATOM      6  C   UNL     1       7.056 -26.037  19.224  1.00  0.00     0.102 A 
ENDROOT
BRANCH   1   7
ATOM      7  O   UNL     1       4.725 -25.920  19.967  1.00  0.00    -0.426 OA
BRANCH   7   8
ATOM      8  C   UNL     1       4.228 -24.632  20.134  1.00  0.00     0.308 C 
ATOM      9  O   UNL     1       4.615 -23.620  19.564  1.00  0.00    -0.252 OA
ATOM     10  C   UNL     1       3.136 -24.662  21.161  1.00  0.00     0.139 C 
ENDBRANCH   7   8
ENDBRANCH   1   7
BRANCH   6  11
ATOM     11  C   UNL     1       6.654 -25.954  17.795  1.00  0.00     0.339 C 
ATOM     12  O   UNL     1       6.931 -25.073  17.004  1.00  0.00    -0.246 OA
BRANCH  11  13
ATOM     13  O   UNL     1       5.900 -27.003  17.410  1.00  0.00    -0.478 OA
ATOM     14  H   UNL     1       6.212 -27.192  16.501  1.00  0.00     0.297 HD
ENDBRANCH  11  13
ENDBRANCH   6  11
TORSDOF 4
ENDMDL
MODEL 2
REMARK VINA RESULT:    -5.021      1.633      3.479
REMARK INTER + INTRA:          -6.597
REMARK INTER:                  -6.070
REMARK INTRA:                  -0.528
REMARK UNBOUND:                -0.550
REMARK SMILES CC(=O)Oc1ccccc1C(=O)O
REMARK SMILES IDX 5 1 6 2 7 3 8 4 9 5 10 6 4 7 2 8 3 9 1 10 11 11 12 12 13 13
REMARK H PARENT 13 14
ROOT
ATOM      1  C   UNL     1       6.286 -26.588  20.347  1.00  0.00     0.145 A 
ATOM      2  C   UNL     1       5.795 -26.404  21.645  1.00  0.00     0.048 A 
ATOM      3  C   UNL     1       4.703 -25.564  21.857  1.00  0.00     0.004 A 
ATOM      4  C   UNL     1       4.115 -24.902  20.779  1.00  0.00     0.001 A 
ATOM      5  C   UNL     1       4.620 -25.073  19.486  1.00  0.00     0.019 A 
ATOM      6  C   UNL     1       5.718 -25.916  19.255  1.00  0.00     0.102 A 
ENDROOT
BRANCH   1   7
ATOM      7  O   UNL     1       7.399 -27.420  20.208  1.00  0.00    -0.426 OA
BRANCH   7   8
ATOM      8  C   UNL     1       8.584 -26.793  20.577  1.00  0.00     0.308 C 
ATOM      9  O   UNL     1       8.965 -25.684  20.225  1.00  0.00    -0.252 OA
ATOM     10  C   UNL     1       9.361 -27.711  21.473  1.00  0.00     0.139 C 
ENDBRANCH   7   8
ENDBRANCH   1   7
BRANCH   6  11
ATOM     11  C   UNL     1       6.279 -26.080  17.888  1.00  0.00     0.339 C 
ATOM     12  O   UNL     1       6.855 -25.238  17.224  1.00  0.00    -0.246 OA
BRANCH  11  13
ATOM     13  O   UNL     1       6.086 -27.319  17.397  1.00  0.00    -0.478 OA
ATOM     14  H   UNL     1       5.548 -27.762  18.086  1.00  0.00     0.297 HD
ENDBRANCH  11  13
ENDBRANCH   6  11
TORSDOF 4
ENDMDL
MODEL 3
REMARK VINA RESULT:    -4.964      1.786      3.754
REMARK INTER + INTRA:          -6.529
REMARK INTER:                  -6.046
REMARK INTRA:                  -0.483
REMARK UNBOUND:                -0.550
REMARK SMILES CC(=O)Oc1ccccc1C(=O)O
REMARK SMILES IDX 5 1 6 2 7 3 8 4 9 5 10 6 4 7 2 8 3 9 1 10 11 11 12 12 13 13
REMARK H PARENT 13 14
ROOT
ATOM      1  C   UNL     1       6.992 -24.967  20.114  1.00  0.00     0.145 A 
ATOM      2  C   UNL     1       6.677 -24.365  21.338  1.00  0.00     0.048 A 
ATOM      3  C   UNL     1       5.345 -24.122  21.665  1.00  0.00     0.004 A 
ATOM      4  C   UNL     1       4.334 -24.465  20.767  1.00  0.00     0.001 A 
ATOM      5  C   UNL     1       4.653 -25.049  19.537  1.00  0.00     0.019 A 
ATOM      6  C   UNL     1       5.989 -25.301  19.192  1.00  0.00     0.102 A 
ENDROOT
BRANCH   1   7
ATOM      7  O   UNL     1       8.348 -25.156  19.837  1.00  0.00    -0.426 OA
BRANCH   7   8
ATOM      8  C   UNL     1       8.908 -26.185  20.586  1.00  0.00     0.308 C 
ATOM      9  O   UNL     1       8.532 -27.349  20.625  1.00  0.00    -0.252 OA
ATOM     10  C   UNL     1      10.056 -25.637  21.380  1.00  0.00     0.139 C 
ENDBRANCH   7   8
ENDBRANCH   1   7
BRANCH   6  11
ATOM     11  C   UNL     1       6.338 -25.894  17.874  1.00  0.00     0.339 C 
ATOM     12  O   UNL     1       6.280 -27.068  17.558  1.00  0.00    -0.246 OA
BRANCH  11  13
ATOM     13  O   UNL     1       6.758 -24.971  16.987  1.00  0.00    -0.478 OA
ATOM     14  H   UNL     1       7.692 -24.815  17.238  1.00  0.00     0.297 HD
ENDBRANCH  11  13
ENDBRANCH   6  11
TORSDOF 4
ENDMDL
MODEL 4
REMARK VINA RESULT:    -4.958      6.463      7.858
REMARK INTER + INTRA:          -6.523
REMARK INTER:                  -5.809
REMARK INTRA:                  -0.714
REMARK UNBOUND:                -0.550
REMARK SMILES CC(=O)Oc1ccccc1C(=O)O
REMARK SMILES IDX 5 1 6 2 7 3 8 4 9 5 10 6 4 7 2 8 3 9 1 10 11 11 12 12 13 13
REMARK H PARENT 13 14
ROOT
ATOM      1  C   UNL     1      11.826 -26.295  24.095  1.00  0.00     0.145 A 
ATOM      2  C   UNL     1      11.064 -25.138  23.899  1.00  0.00     0.048 A 
ATOM      3  C   UNL     1      11.647 -24.021  23.304  1.00  0.00     0.004 A 
ATOM      4  C   UNL     1      12.988 -24.057  22.921  1.00  0.00     0.001 A 
ATOM      5  C   UNL     1      13.752 -25.208  23.136  1.00  0.00     0.019 A 
ATOM      6  C   UNL     1      13.180 -26.343  23.733  1.00  0.00     0.102 A 
ENDROOT
BRANCH   1   7
ATOM      7  O   UNL     1      11.188 -27.369  24.722  1.00  0.00    -0.426 OA
BRANCH   7   8
ATOM      8  C   UNL     1      10.344 -28.065  23.863  1.00  0.00     0.308 C 
ATOM      9  O   UNL     1      10.653 -28.588  22.800  1.00  0.00    -0.252 OA
ATOM     10  C   UNL     1       8.958 -28.059  24.434  1.00  0.00     0.139 C 
ENDBRANCH   7   8
ENDBRANCH   1   7
BRANCH   6  11
ATOM     11  C   UNL     1      13.993 -27.560  23.991  1.00  0.00     0.339 C 
ATOM     12  O   UNL     1      14.882 -27.689  24.812  1.00  0.00    -0.246 OA
BRANCH  11  13
ATOM     13  O   UNL     1      13.653 -28.587  23.189  1.00  0.00    -0.478 OA
ATOM     14  H   UNL     1      13.327 -29.271  23.810  1.00  0.00     0.297 HD
ENDBRANCH  11  13
ENDBRANCH   6  11
TORSDOF 4
ENDMDL
MODEL 5
REMARK VINA RESULT:    -4.705      5.102      6.290
REMARK INTER + INTRA:          -6.218
REMARK INTER:                  -5.511
REMARK INTRA:                  -0.707
REMARK UNBOUND:                -0.550
REMARK SMILES CC(=O)Oc1ccccc1C(=O)O
REMARK SMILES IDX 5 1 6 2 7 3 8 4 9 5 10 6 4 7 2 8 3 9 1 10 11 11 12 12 13 13
REMARK H PARENT 13 14
ROOT
ATOM      1  C   UNL     1      11.758 -25.886  22.764  1.00  0.00     0.145 A 
ATOM      2  C   UNL     1      12.945 -25.196  23.033  1.00  0.00     0.048 A 
ATOM      3  C   UNL     1      14.171 -25.806  22.778  1.00  0.00     0.004 A 
ATOM      4  C   UNL     1      14.210 -27.105  22.269  1.00  0.00     0.001 A 
ATOM      5  C   UNL     1      13.022 -27.799  22.019  1.00  0.00     0.019 A 
ATOM      6  C   UNL     1      11.778 -27.199  22.271  1.00  0.00     0.102 A 
ENDROOT
BRANCH   1   7
ATOM      7  O   UNL     1      10.564 -25.228  23.070  1.00  0.00    -0.426 OA
BRANCH   7   8
ATOM      8  C   UNL     1      10.253 -24.232  22.150  1.00  0.00     0.308 C 
ATOM      9  O   UNL     1      10.074 -24.377  20.948  1.00  0.00    -0.252 OA
ATOM     10  C   UNL     1      10.192 -22.914  22.864  1.00  0.00     0.139 C 
ENDBRANCH   7   8
ENDBRANCH   1   7
BRANCH   6  11
ATOM     11  C   UNL     1      10.512 -27.941  22.035  1.00  0.00     0.339 C 
ATOM     12  O   UNL     1      10.087 -28.890  22.668  1.00  0.00    -0.246 OA
BRANCH  11  13
ATOM     13  O   UNL     1       9.816 -27.455  20.988  1.00  0.00    -0.478 OA
ATOM     14  H   UNL     1       9.120 -28.128  20.839  1.00  0.00     0.297 HD
ENDBRANCH  11  13
ENDBRANCH   6  11
TORSDOF 4
ENDMDL
MODEL 6
REMARK VINA RESULT:    -4.675      6.368      8.380
REMARK INTER + INTRA:          -6.182
REMARK INTER:                  -5.776
REMARK INTRA:                  -0.405
REMARK UNBOUND:                -0.550
REMARK SMILES CC(=O)Oc1ccccc1C(=O)O
REMARK SMILES IDX 5 1 6 2 7 3 8 4 9 5 10 6 4 7 2 8 3 9 1 10 11 11 12 12 13 13
REMARK H PARENT 13 14
ROOT
ATOM      1  C   UNL     1      12.409 -25.878  23.450  1.00  0.00     0.145 A 
ATOM      2  C   UNL     1      13.411 -25.049  22.933  1.00  0.00     0.048 A 
ATOM      3  C   UNL     1      13.241 -23.666  22.953  1.00  0.00     0.004 A 
ATOM      4  C   UNL     1      12.070 -23.117  23.475  1.00  0.00     0.001 A 
ATOM      5  C   UNL     1      11.062 -23.949  23.974  1.00  0.00     0.019 A 
ATOM      6  C   UNL     1      11.217 -25.344  23.961  1.00  0.00     0.102 A 
ENDROOT
BRANCH   1   7
ATOM      7  O   UNL     1      12.630 -27.256  23.372  1.00  0.00    -0.426 OA
BRANCH   7   8
ATOM      8  C   UNL     1      13.816 -27.642  23.988  1.00  0.00     0.308 C 
ATOM      9  O   UNL     1      14.262 -27.218  25.046  1.00  0.00    -0.252 OA
ATOM     10  C   UNL     1      14.499 -28.663  23.127  1.00  0.00     0.139 C 
ENDBRANCH   7   8
ENDBRANCH   1   7
BRANCH   6  11
ATOM     11  C   UNL     1      10.139 -26.236  24.462  1.00  0.00     0.339 C 
ATOM     12  O   UNL     1       8.978 -26.261  24.098  1.00  0.00    -0.246 OA
BRANCH  11  13
ATOM     13  O   UNL     1      10.569 -27.075  25.424  1.00  0.00    -0.478 OA
ATOM     14  H   UNL     1      11.320 -27.544  25.005  1.00  0.00     0.297 HD
ENDBRANCH  11  13
ENDBRANCH   6  11
TORSDOF 4
ENDMDL
MODEL 7
REMARK VINA RESULT:    -4.646      6.513      8.349
REMARK INTER + INTRA:          -6.146
REMARK INTER:                  -5.677
REMARK INTRA:                  -0.468
REMARK UNBOUND:                -0.550
REMARK SMILES CC(=O)Oc1ccccc1C(=O)O
REMARK SMILES IDX 5 1 6 2 7 3 8 4 9 5 10 6 4 7 2 8 3 9 1 10 11 11 12 12 13 13
REMARK H PARENT 13 14
ROOT
ATOM      1  C   UNL     1      12.603 -26.147  23.929  1.00  0.00     0.145 A 
ATOM      2  C   UNL     1      11.931 -27.105  24.697  1.00  0.00     0.048 A 
ATOM      3  C   UNL     1      10.565 -26.968  24.931  1.00  0.00     0.004 A 
ATOM      4  C   UNL     1       9.876 -25.872  24.411  1.00  0.00     0.001 A 
ATOM      5  C   UNL     1      10.553 -24.906  23.660  1.00  0.00     0.019 A 
ATOM      6  C   UNL     1      11.930 -25.028  23.415  1.00  0.00     0.102 A 
ENDROOT
BRANCH   1   7
ATOM      7  O   UNL     1      13.977 -26.328  23.757  1.00  0.00    -0.426 OA
BRANCH   7   8
ATOM      8  C   UNL     1      14.284 -27.543  23.153  1.00  0.00     0.308 C 
ATOM      9  O   UNL     1      14.639 -28.570  23.716  1.00  0.00    -0.252 OA
ATOM     10  C   UNL     1      14.136 -27.397  21.668  1.00  0.00     0.139 C 
ENDBRANCH   7   8
ENDBRANCH   1   7
BRANCH   6  11
ATOM     11  C   UNL     1      12.663 -23.991  22.642  1.00  0.00     0.339 C 
ATOM     12  O   UNL     1      12.296 -23.440  21.621  1.00  0.00    -0.246 OA
BRANCH  11  13
ATOM     13  O   UNL     1      13.853 -23.683  23.192  1.00  0.00    -0.478 OA
ATOM     14  H   UNL     1      13.616 -23.283  24.054  1.00  0.00     0.297 HD
ENDBRANCH  11  13
ENDBRANCH   6  11
TORSDOF 4
ENDMDL
MODEL 8
REMARK VINA RESULT:    -4.630      5.478      7.464
REMARK INTER + INTRA:          -6.127
REMARK INTER:                  -5.515
REMARK INTRA:                  -0.611
REMARK UNBOUND:                -0.550
REMARK SMILES CC(=O)Oc1ccccc1C(=O)O
REMARK SMILES IDX 5 1 6 2 7 3 8 4 9 5 10 6 4 7 2 8 3 9 1 10 11 11 12 12 13 13
REMARK H PARENT 13 14
ROOT
ATOM      1  C   UNL     1      12.202 -26.309  22.967  1.00  0.00     0.145 A 
ATOM      2  C   UNL     1      13.152 -25.323  23.255  1.00  0.00     0.048 A 
ATOM      3  C   UNL     1      12.912 -24.002  22.882  1.00  0.00     0.004 A 
ATOM      4  C   UNL     1      11.733 -23.671  22.214  1.00  0.00     0.001 A 
ATOM      5  C   UNL     1      10.793 -24.662  21.911  1.00  0.00     0.019 A 
ATOM      6  C   UNL     1      11.020 -25.997  22.279  1.00  0.00     0.102 A 
ENDROOT
BRANCH   1   7
ATOM      7  O   UNL     1      12.518 -27.617  23.342  1.00  0.00    -0.426 OA
BRANCH   7   8
ATOM      8  C   UNL     1      13.591 -28.134  22.625  1.00  0.00     0.308 C 
ATOM      9  O   UNL     1      13.756 -28.078  21.414  1.00  0.00    -0.252 OA
ATOM     10  C   UNL     1      14.531 -28.810  23.579  1.00  0.00     0.139 C 
ENDBRANCH   7   8
ENDBRANCH   1   7
BRANCH   6  11
ATOM     11  C   UNL     1      10.039 -27.060  21.934  1.00  0.00     0.339 C 
ATOM     12  O   UNL     1       8.844 -27.060  22.164  1.00  0.00    -0.246 OA
BRANCH  11  13
ATOM     13  O   UNL     1      10.611 -28.105  21.304  1.00  0.00    -0.478 OA
ATOM     14  H   UNL     1      11.493 -28.176  21.724  1.00  0.00     0.297 HD
ENDBRANCH  11  13
ENDBRANCH   6  11
TORSDOF 4
ENDMDL
