MODEL 1
REMARK VINA RESULT:    -4.745      0.000      0.000
REMARK INTER + INTRA:          -5.286
REMARK INTER:                  -5.161
REMARK INTRA:                  -0.125
REMARK UNBOUND:                -0.125
REMARK SMILES Cc1ccc(C(C)C)cc1O
REMARK SMILES IDX 1 1 2 2 3 3 4 4 5 5 9 6 10 7 11 8 6 10 7 11 8 12
REMARK H PARENT 11 9
ROOT
ATOM      1  C   UNL     1      14.538 -27.985  24.389  1.00  0.00     0.048 C 
ATOM      2  C   UNL     1      13.594 -26.868  24.051  1.00  0.00    -0.009 A 
ATOM      3  C   UNL     1      12.349 -26.801  24.692  1.00  0.00     0.007 A 
ATOM      4  C   UNL     1      11.445 -25.774  24.401  1.00  0.00     0.004 A 
ATOM      5  C   UNL     1      11.761 -24.786  23.460  1.00  0.00    -0.042 A 
ATOM      6  C   UNL     1      13.005 -24.854  22.818  1.00  0.00     0.050 A 
ATOM      7  C   UNL     1      13.905 -25.880  23.112  1.00  0.00     0.118 A 
ENDROOT
BRANCH   7   8
ATOM      8  O   UNL     1      15.088 -25.852  22.429  1.00  0.00    -0.508 OA
ATOM      9  H   UNL     1      15.823 -25.883  23.061  1.00  0.00     0.293 HD
ENDBRANCH   7   8
BRANCH   5  10
ATOM     10  C   UNL     1      10.767 -23.680  23.158  1.00  0.00     0.013 C 
ATOM     11  C   UNL     1      10.009 -23.947  21.855  1.00  0.00     0.012 C 
ATOM     12  C   UNL     1       9.794 -23.465  24.320  1.00  0.00     0.012 C 
ENDBRANCH   5  10
TORSDOF 2
ENDMDL
MODEL 2
REMARK VINA RESULT:    -4.731      0.490      1.123
REMARK INTER + INTRA:          -5.270
REMARK INTER:                  -5.175
REMARK INTRA:                  -0.095
REMARK UNBOUND:                -0.125
REMARK SMILES Cc1ccc(C(C)C)cc1O
REMARK SMILES IDX 1 1 2 2 3 3 4 4 5 5 9 6 10 7 11 8 6 10 7 11 8 12
REMARK H PARENT 11 9
ROOT
ATOM      1  C   UNL     1      14.489 -28.103  24.262  1.00  0.00     0.048 C 
ATOM      2  C   UNL     1      13.554 -26.958  24.001  1.00  0.00    -0.009 A 
ATOM      3  C   UNL     1      12.309 -26.925  24.646  1.00  0.00     0.007 A 
ATOM      4  C   UNL     1      11.413 -25.874  24.426  1.00  0.00     0.004 A 
ATOM      5  C   UNL     1      11.737 -24.827  23.554  1.00  0.00    -0.042 A 
ATOM      6  C   UNL     1      12.980 -24.861  22.909  1.00  0.00     0.050 A 
ATOM      7  C   UNL     1      13.872 -25.911  23.131  1.00  0.00     0.118 A 
ENDROOT
BRANCH   7   8
ATOM      8  O   UNL     1      15.055 -25.845  22.451  1.00  0.00    -0.508 OA
ATOM      9  H   UNL     1      15.683 -26.473  22.840  1.00  0.00     0.293 HD
ENDBRANCH   7   8
BRANCH   5  10
ATOM     10  C   UNL     1      10.750 -23.696  23.328  1.00  0.00     0.013 C 
ATOM     11  C   UNL     1      11.370 -22.335  23.655  1.00  0.00     0.012 C 
ATOM     12  C   UNL     1      10.192 -23.712  21.903  1.00  0.00     0.012 C 
ENDBRANCH   5  10
TORSDOF 2
ENDMDL
MODEL 3
REMARK VINA RESULT:    -4.713      2.006      4.614
REMARK INTER + INTRA:          -5.251
REMARK INTER:                  -5.147
REMARK INTRA:                  -0.104
REMARK UNBOUND:                -0.125
REMARK SMILES Cc1ccc(C(C)C)cc1O
REMARK SMILES IDX 1 1 2 2 3 3 4 4 5 5 9 6 10 7 11 8 6 10 7 11 8 12
REMARK H PARENT 11 9
ROOT
ATOM      1  C   UNL     1      10.314 -23.329  24.280  1.00  0.00     0.048 C 
ATOM      2  C   UNL     1      11.336 -24.369  23.924  1.00  0.00    -0.009 A 
ATOM      3  C   UNL     1      12.470 -23.998  23.189  1.00  0.00     0.007 A 
ATOM      4  C   UNL     1      13.442 -24.941  22.839  1.00  0.00     0.004 A 
ATOM      5  C   UNL     1      13.305 -26.284  23.215  1.00  0.00    -0.042 A 
ATOM      6  C   UNL     1      12.171 -26.655  23.949  1.00  0.00     0.050 A 
ATOM      7  C   UNL     1      11.204 -25.711  24.296  1.00  0.00     0.118 A 
ENDROOT
BRANCH   7   8
ATOM      8  O   UNL     1      10.139 -26.180  25.012  1.00  0.00    -0.508 OA
ATOM      9  H   UNL     1      10.308 -27.099  25.273  1.00  0.00     0.293 HD
ENDBRANCH   7   8
BRANCH   5  10
ATOM     10  C   UNL     1      14.370 -27.292  22.825  1.00  0.00     0.013 C 
ATOM     11  C   UNL     1      14.381 -28.492  23.775  1.00  0.00     0.012 C 
ATOM     12  C   UNL     1      14.210 -27.747  21.373  1.00  0.00     0.012 C 
ENDBRANCH   5  10
TORSDOF 2
ENDMDL
MODEL 4
REMARK VINA RESULT:    -4.596      1.616      4.262
REMARK INTER + INTRA:          -5.124
REMARK INTER:                  -4.999
REMARK INTRA:                  -0.125
REMARK UNBOUND:                -0.125
REMARK SMILES Cc1ccc(C(C)C)cc1O
REMARK SMILES IDX 1 1 2 2 3 3 4 4 5 5 9 6 10 7 11 8 6 10 7 11 8 12
REMARK H PARENT 11 9
ROOT
ATOM      1  C   UNL     1      10.073 -22.980  24.091  1.00  0.00     0.048 C 
ATOM      2  C   UNL     1      11.149 -24.003  23.864  1.00  0.00    -0.009 A 
ATOM      3  C   UNL     1      10.921 -25.336  24.232  1.00  0.00     0.007 A 
ATOM      4  C   UNL     1      11.901 -26.314  24.034  1.00  0.00     0.004 A 
ATOM      5  C   UNL     1      13.137 -25.986  23.463  1.00  0.00    -0.042 A 
ATOM      6  C   UNL     1      13.365 -24.653  23.095  1.00  0.00     0.050 A 
ATOM      7  C   UNL     1      12.384 -23.680  23.294  1.00  0.00     0.118 A 
ENDROOT
BRANCH   7   8
ATOM      8  O   UNL     1      12.711 -22.412  22.900  1.00  0.00    -0.508 OA
ATOM      9  H   UNL     1      13.232 -22.455  22.084  1.00  0.00     0.293 HD
ENDBRANCH   7   8
BRANCH   5  10
ATOM     10  C   UNL     1      14.187 -27.062  23.257  1.00  0.00     0.013 C 
ATOM     11  C   UNL     1      14.533 -27.767  24.571  1.00  0.00     0.012 C 
ATOM     12  C   UNL     1      13.756 -28.073  22.193  1.00  0.00     0.012 C 
ENDBRANCH   5  10
TORSDOF 2
ENDMDL
MODEL 5
REMARK VINA RESULT:    -4.574      2.935      4.547
REMARK INTER + INTRA:          -5.100
REMARK INTER:                  -4.999
REMARK INTRA:                  -0.101
REMARK UNBOUND:                -0.125
REMARK SMILES Cc1ccc(C(C)C)cc1O
REMARK SMILES IDX 1 1 2 2 3 3 4 4 5 5 9 6 10 7 11 8 6 10 7 11 8 12
REMARK H PARENT 11 9
ROOT
ATOM      1  C   UNL     1       8.091 -28.379  23.515  1.00  0.00     0.048 C 
ATOM      2  C   UNL     1       9.531 -27.964  23.592  1.00  0.00    -0.009 A 
ATOM      3  C   UNL     1      10.025 -27.407  24.780  1.00  0.00     0.007 A 
ATOM      4  C   UNL     1      11.361 -27.009  24.887  1.00  0.00     0.004 A 
ATOM      5  C   UNL     1      12.242 -27.156  23.807  1.00  0.00    -0.042 A 
ATOM      6  C   UNL     1      11.748 -27.713  22.620  1.00  0.00     0.050 A 
ATOM      7  C   UNL     1      10.414 -28.109  22.517  1.00  0.00     0.118 A 
ENDROOT
BRANCH   7   8
ATOM      8  O   UNL     1      10.037 -28.639  21.315  1.00  0.00    -0.508 OA
ATOM      9  H   UNL     1       9.615 -27.949  20.780  1.00  0.00     0.293 HD
ENDBRANCH   7   8
BRANCH   5  10
ATOM     10  C   UNL     1      13.688 -26.717  23.943  1.00  0.00     0.013 C 
ATOM     11  C   UNL     1      14.562 -27.834  24.518  1.00  0.00     0.012 C 
ATOM     12  C   UNL     1      14.251 -26.215  22.611  1.00  0.00     0.012 C 
ENDBRANCH   5  10
TORSDOF 2
ENDMDL
MODEL 6
REMARK VINA RESULT:    -4.557      1.977      2.458
REMARK INTER + INTRA:          -5.081
REMARK INTER:                  -4.956
REMARK INTRA:                  -0.125
REMARK UNBOUND:                -0.125
REMARK SMILES Cc1ccc(C(C)C)cc1O
REMARK SMILES IDX 1 1 2 2 3 3 4 4 5 5 9 6 10 7 11 8 6 10 7 11 8 12
REMARK H PARENT 11 9
ROOT
ATOM      1  C   UNL     1      14.199 -28.434  22.271  1.00  0.00     0.048 C 
ATOM      2  C   UNL     1      13.459 -27.140  22.443  1.00  0.00    -0.009 A 
ATOM      3  C   UNL     1      14.154 -26.002  22.875  1.00  0.00     0.007 A 
ATOM      4  C   UNL     1      13.496 -24.779  23.046  1.00  0.00     0.004 A 
ATOM      5  C   UNL     1      12.123 -24.662  22.790  1.00  0.00    -0.042 A 
ATOM      6  C   UNL     1      11.429 -25.800  22.359  1.00  0.00     0.050 A 
ATOM      7  C   UNL     1      12.089 -27.018  22.189  1.00  0.00     0.118 A 
ENDROOT
BRANCH   7   8
ATOM      8  O   UNL     1      11.317 -28.063  21.766  1.00  0.00    -0.508 OA
ATOM      9  H   UNL     1      10.423 -27.967  22.128  1.00  0.00     0.293 HD
ENDBRANCH   7   8
BRANCH   5  10
ATOM     10  C   UNL     1      11.428 -23.327  22.983  1.00  0.00     0.013 C 
ATOM     11  C   UNL     1      10.364 -23.401  24.081  1.00  0.00     0.012 C 
ATOM     12  C   UNL     1      12.430 -22.206  23.269  1.00  0.00     0.012 C 
ENDBRANCH   5  10
TORSDOF 2
ENDMDL
MODEL 7
REMARK VINA RESULT:    -4.543      2.480      4.668
REMARK INTER + INTRA:          -5.066
REMARK INTER:                  -4.940
REMARK INTRA:                  -0.126
REMARK UNBOUND:                -0.125
REMARK SMILES Cc1ccc(C(C)C)cc1O
REMARK SMILES IDX 1 1 2 2 3 3 4 4 5 5 9 6 10 7 11 8 6 10 7 11 8 12
REMARK H PARENT 11 9
ROOT
ATOM      1  C   UNL     1       8.230 -25.502  20.448  1.00  0.00     0.048 C 
ATOM      2  C   UNL     1       9.533 -25.590  21.189  1.00  0.00    -0.009 A 
ATOM      3  C   UNL     1      10.064 -26.849  21.501  1.00  0.00     0.007 A 
ATOM      4  C   UNL     1      11.275 -26.968  22.191  1.00  0.00     0.004 A 
ATOM      5  C   UNL     1      11.988 -25.830  22.588  1.00  0.00    -0.042 A 
ATOM      6  C   UNL     1      11.457 -24.572  22.276  1.00  0.00     0.050 A 
ATOM      7  C   UNL     1      10.249 -24.457  21.588  1.00  0.00     0.118 A 
ENDROOT
BRANCH   7   8
ATOM      8  O   UNL     1       9.822 -23.184  21.336  1.00  0.00    -0.508 OA
ATOM      9  H   UNL     1      10.555 -22.668  20.967  1.00  0.00     0.293 HD
ENDBRANCH   7   8
BRANCH   5  10
ATOM     10  C   UNL     1      13.300 -25.980  23.336  1.00  0.00     0.013 C 
ATOM     11  C   UNL     1      13.156 -26.912  24.542  1.00  0.00     0.012 C 
ATOM     12  C   UNL     1      14.424 -26.455  22.412  1.00  0.00     0.012 C 
ENDBRANCH   5  10
TORSDOF 2
ENDMDL
MODEL 8
REMARK VINA RESULT:    -4.537      2.947      4.453
REMARK INTER + INTRA:          -5.060
REMARK INTER:                  -4.953
REMARK INTRA:                  -0.107
REMARK UNBOUND:                -0.125
REMARK SMILES Cc1ccc(C(C)C)cc1O
REMARK SMILES IDX 1 1 2 2 3 3 4 4 5 5 9 6 10 7 11 8 6 10 7 11 8 12
REMARK H PARENT 11 9
ROOT
ATOM      1  C   UNL     1      13.818 -19.424  24.454  1.00  0.00     0.048 C 
ATOM      2  C   UNL     1      13.288 -20.767  24.043  1.00  0.00    -0.009 A 
ATOM      3  C   UNL     1      11.937 -21.071  24.262  1.00  0.00     0.007 A 
ATOM      4  C   UNL     1      11.409 -22.312  23.891  1.00  0.00     0.004 A 
ATOM      5  C   UNL     1      12.219 -23.285  23.292  1.00  0.00    -0.042 A 
ATOM      6  C   UNL     1      13.570 -22.982  23.074  1.00  0.00     0.050 A 
ATOM      7  C   UNL     1      14.092 -21.742  23.444  1.00  0.00     0.118 A 
ENDROOT
BRANCH   7   8
ATOM      8  O   UNL     1      15.421 -21.551  23.186  1.00  0.00    -0.508 OA
ATOM      9  H   UNL     1      15.652 -21.993  22.355  1.00  0.00     0.293 HD
ENDBRANCH   7   8
BRANCH   5  10
ATOM     10  C   UNL     1      11.628 -24.626  22.898  1.00  0.00     0.013 C 
ATOM     11  C   UNL     1      10.715 -24.500  21.676  1.00  0.00     0.012 C 
ATOM     12  C   UNL     1      12.718 -25.674  22.659  1.00  0.00     0.012 C 
ENDBRANCH   5  10
TORSDOF 2
ENDMDL
