MODEL 1
REMARK VINA RESULT:    -7.086      0.000      0.000
REMARK INTER + INTRA:          -9.821
REMARK INTER:                  -9.158
REMARK INTRA:                  -0.663
REMARK UNBOUND:                -0.663
REMARK SMILES Cc1ccc(C(C)C)cc1OCc1cc(-c2ccccc2)no1
REMARK SMILES IDX 11 1 10 2 2 3 3 4 4 5 9 6 5 7 1 8 6 9 7 10 8 11 12 12 13 13
REMARK SMILES IDX 14 14 23 15 15 16 22 17 16 18 17 19 21 20 18 21 20 22 19 23
REMARK H PARENT
ROOT
ATOM      1  O   UNL     1      11.909 -27.500  24.845  1.00  0.00    -0.485 OA
ENDROOT
BRANCH   1   2
ATOM      2  C   UNL     1      12.575 -26.587  24.068  1.00  0.00     0.123 A 
ATOM      3  C   UNL     1      13.677 -27.086  23.353  1.00  0.00    -0.009 A 
ATOM      4  C   UNL     1      14.403 -26.223  22.521  1.00  0.00     0.007 A 
ATOM      5  C   UNL     1      14.033 -24.883  22.391  1.00  0.00     0.004 A 
ATOM      6  C   UNL     1      12.205 -25.246  23.921  1.00  0.00     0.050 A 
ATOM      7  C   UNL     1      12.929 -24.378  23.085  1.00  0.00    -0.042 A 
ATOM      8  C   UNL     1      14.088 -28.527  23.473  1.00  0.00     0.048 C 
BRANCH   7   9
ATOM      9  C   UNL     1      12.532 -22.922  22.914  1.00  0.00     0.013 C 
ATOM     10  C   UNL     1      11.331 -22.561  23.794  1.00  0.00     0.012 C 
ATOM     11  C   UNL     1      13.708 -21.981  23.183  1.00  0.00     0.012 C 
ENDBRANCH   7   9
ENDBRANCH   1   2
BRANCH   1  12
ATOM     12  C   UNL     1      10.487 -27.387  24.957  1.00  0.00     0.307 C 
BRANCH  12  13
ATOM     13  C   UNL     1       9.879 -27.530  23.616  1.00  0.00     0.174 A 
ATOM     14  C   UNL     1       9.022 -26.778  22.851  1.00  0.00     0.081 A 
ATOM     15  O   UNL     1      10.205 -28.655  22.931  1.00  0.00    -0.357 OA
ATOM     16  C   UNL     1       8.836 -27.524  21.657  1.00  0.00     0.114 A 
ATOM     17  N   UNL     1       9.561 -28.656  21.713  1.00  0.00    -0.079 NA
BRANCH  16  18
ATOM     18  C   UNL     1       8.007 -27.194  20.493  1.00  0.00     0.004 A 
ATOM     19  C   UNL     1       6.698 -27.692  20.383  1.00  0.00     0.010 A 
ATOM     20  C   UNL     1       8.494 -26.374  19.464  1.00  0.00     0.010 A 
ATOM     21  C   UNL     1       5.902 -27.383  19.276  1.00  0.00     0.001 A 
ATOM     22  C   UNL     1       7.698 -26.065  18.356  1.00  0.00     0.001 A 
ATOM     23  C   UNL     1       6.403 -26.570  18.263  1.00  0.00     0.000 A 
ENDBRANCH  16  18
ENDBRANCH  12  13
ENDBRANCH   1  12
TORSDOF 5
ENDMDL
MODEL 2
REMARK VINA RESULT:    -6.733      2.721      4.221
REMARK INTER + INTRA:          -9.364
REMARK INTER:                  -8.685
REMARK INTRA:                  -0.679
REMARK UNBOUND:                -0.663
REMARK SMILES Cc1ccc(C(C)C)cc1OCc1cc(-c2ccccc2)no1
REMARK SMILES IDX 11 1 10 2 2 3 3 4 4 5 9 6 5 7 1 8 6 9 7 10 8 11 12 12 13 13
REMARK SMILES IDX 14 14 23 15 15 16 22 17 16 18 17 19 21 20 18 21 20 22 19 23
REMARK H PARENT
ROOT
ATOM      1  O   UNL     1      11.267 -23.666  23.960  1.00  0.00    -0.485 OA
ENDROOT
BRANCH   1   2
ATOM      2  C   UNL     1      11.553 -25.007  23.914  1.00  0.00     0.123 A 
ATOM      3  C   UNL     1      10.534 -25.861  24.369  1.00  0.00    -0.009 A 
ATOM      4  C   UNL     1      10.738 -27.248  24.340  1.00  0.00     0.007 A 
ATOM      5  C   UNL     1      11.933 -27.781  23.855  1.00  0.00     0.004 A 
ATOM      6  C   UNL     1      12.743 -25.551  23.418  1.00  0.00     0.050 A 
ATOM      7  C   UNL     1      12.949 -26.941  23.384  1.00  0.00    -0.042 A 
ATOM      8  C   UNL     1       9.237 -25.309  24.889  1.00  0.00     0.048 C 
BRANCH   7   9
ATOM      9  C   UNL     1      14.234 -27.542  22.843  1.00  0.00     0.013 C 
ATOM     10  C   UNL     1      14.544 -28.890  23.501  1.00  0.00     0.012 C 
ATOM     11  C   UNL     1      14.198 -27.675  21.319  1.00  0.00     0.012 C 
ENDBRANCH   7   9
ENDBRANCH   1   2
BRANCH   1  12
ATOM     12  C   UNL     1      11.157 -22.954  22.724  1.00  0.00     0.307 C 
BRANCH  12  13
ATOM     13  C   UNL     1       9.971 -23.438  21.986  1.00  0.00     0.174 A 
ATOM     14  C   UNL     1       8.639 -23.101  21.954  1.00  0.00     0.081 A 
ATOM     15  O   UNL     1      10.184 -24.461  21.119  1.00  0.00    -0.357 OA
ATOM     16  C   UNL     1       8.050 -23.995  21.021  1.00  0.00     0.114 A 
ATOM     17  N   UNL     1       8.995 -24.810  20.517  1.00  0.00    -0.079 NA
BRANCH  16  18
ATOM     18  C   UNL     1       6.647 -24.089  20.606  1.00  0.00     0.004 A 
ATOM     19  C   UNL     1       6.164 -25.247  19.973  1.00  0.00     0.010 A 
ATOM     20  C   UNL     1       5.751 -23.033  20.830  1.00  0.00     0.010 A 
ATOM     21  C   UNL     1       4.828 -25.343  19.574  1.00  0.00     0.001 A 
ATOM     22  C   UNL     1       4.414 -23.129  20.431  1.00  0.00     0.001 A 
ATOM     23  C   UNL     1       3.954 -24.284  19.802  1.00  0.00     0.000 A 
ENDBRANCH  16  18
ENDBRANCH  12  13
ENDBRANCH   1  12
TORSDOF 5
ENDMDL
MODEL 3
REMARK VINA RESULT:    -6.733      2.711      3.438
REMARK INTER + INTRA:          -9.364
REMARK INTER:                  -8.714
REMARK INTRA:                  -0.650
REMARK UNBOUND:                -0.663
REMARK SMILES Cc1ccc(C(C)C)cc1OCc1cc(-c2ccccc2)no1
REMARK SMILES IDX 11 1 10 2 2 3 3 4 4 5 9 6 5 7 1 8 6 9 7 10 8 11 12 12 13 13
REMARK SMILES IDX 14 14 23 15 15 16 22 17 16 18 17 19 21 20 18 21 20 22 19 23
REMARK H PARENT
ROOT
ATOM      1  O   UNL     1      11.447 -27.247  24.822  1.00  0.00    -0.485 OA
ENDROOT
BRANCH   1   2
ATOM      2  C   UNL     1      12.240 -26.401  24.090  1.00  0.00     0.123 A 
ATOM      3  C   UNL     1      13.324 -27.002  23.428  1.00  0.00    -0.009 A 
ATOM      4  C   UNL     1      14.174 -26.211  22.643  1.00  0.00     0.007 A 
ATOM      5  C   UNL     1      13.944 -24.842  22.506  1.00  0.00     0.004 A 
ATOM      6  C   UNL     1      12.011 -25.028  23.936  1.00  0.00     0.050 A 
ATOM      7  C   UNL     1      12.859 -24.233  23.146  1.00  0.00    -0.042 A 
ATOM      8  C   UNL     1      13.584 -28.477  23.556  1.00  0.00     0.048 C 
BRANCH   7   9
ATOM      9  C   UNL     1      12.617 -22.744  22.969  1.00  0.00     0.013 C 
ATOM     10  C   UNL     1      11.473 -22.252  23.861  1.00  0.00     0.012 C 
ATOM     11  C   UNL     1      13.890 -21.931  23.214  1.00  0.00     0.012 C 
ENDBRANCH   7   9
ENDBRANCH   1   2
BRANCH   1  12
ATOM     12  C   UNL     1      10.032 -27.038  24.803  1.00  0.00     0.307 C 
BRANCH  12  13
ATOM     13  C   UNL     1       9.383 -28.159  24.089  1.00  0.00     0.174 A 
ATOM     14  C   UNL     1       8.288 -28.956  24.318  1.00  0.00     0.081 A 
ATOM     15  O   UNL     1       9.966 -28.541  22.924  1.00  0.00    -0.357 OA
ATOM     16  C   UNL     1       8.247 -29.858  23.222  1.00  0.00     0.114 A 
ATOM     17  N   UNL     1       9.263 -29.595  22.381  1.00  0.00    -0.079 NA
BRANCH  16  18
ATOM     18  C   UNL     1       7.287 -30.936  22.962  1.00  0.00     0.004 A 
ATOM     19  C   UNL     1       7.046 -31.376  21.649  1.00  0.00     0.010 A 
ATOM     20  C   UNL     1       6.590 -31.556  24.010  1.00  0.00     0.010 A 
ATOM     21  C   UNL     1       6.132 -32.403  21.393  1.00  0.00     0.001 A 
ATOM     22  C   UNL     1       5.675 -32.582  23.753  1.00  0.00     0.001 A 
ATOM     23  C   UNL     1       5.446 -33.004  22.445  1.00  0.00     0.000 A 
ENDBRANCH  16  18
ENDBRANCH  12  13
ENDBRANCH   1  12
TORSDOF 5
ENDMDL
MODEL 4
REMARK VINA RESULT:    -6.731      3.241      4.712
REMARK INTER + INTRA:          -9.361
REMARK INTER:                  -8.635
REMARK INTRA:                  -0.726
REMARK UNBOUND:                -0.663
REMARK SMILES Cc1ccc(C(C)C)cc1OCc1cc(-c2ccccc2)no1
REMARK SMILES IDX 11 1 10 2 2 3 3 4 4 5 9 6 5 7 1 8 6 9 7 10 8 11 12 12 13 13
REMARK SMILES IDX 14 14 23 15 15 16 22 17 16 18 17 19 21 20 18 21 20 22 19 23
REMARK H PARENT
ROOT
ATOM      1  O   UNL     1       9.501 -26.096  24.386  1.00  0.00    -0.485 OA
ENDROOT
BRANCH   1   2
ATOM      2  C   UNL     1      10.746 -25.694  23.972  1.00  0.00     0.123 A 
ATOM      3  C   UNL     1      10.943 -24.305  23.899  1.00  0.00    -0.009 A 
ATOM      4  C   UNL     1      12.192 -23.809  23.502  1.00  0.00     0.007 A 
ATOM      5  C   UNL     1      13.237 -24.680  23.191  1.00  0.00     0.004 A 
ATOM      6  C   UNL     1      11.803 -26.560  23.671  1.00  0.00     0.050 A 
ATOM      7  C   UNL     1      13.058 -26.066  23.276  1.00  0.00    -0.042 A 
ATOM      8  C   UNL     1       9.833 -23.348  24.236  1.00  0.00     0.048 C 
BRANCH   7   9
ATOM      9  C   UNL     1      14.214 -26.997  22.952  1.00  0.00     0.013 C 
ATOM     10  C   UNL     1      14.475 -27.985  24.093  1.00  0.00     0.012 C 
ATOM     11  C   UNL     1      13.992 -27.735  21.631  1.00  0.00     0.012 C 
ENDBRANCH   7   9
ENDBRANCH   1   2
BRANCH   1  12
ATOM     12  C   UNL     1       9.410 -26.949  25.531  1.00  0.00     0.307 C 
BRANCH  12  13
ATOM     13  C   UNL     1       8.711 -28.197  25.154  1.00  0.00     0.174 A 
ATOM     14  C   UNL     1       8.580 -28.930  24.000  1.00  0.00     0.081 A 
ATOM     15  O   UNL     1       8.010 -28.810  26.143  1.00  0.00    -0.357 OA
ATOM     16  C   UNL     1       7.742 -30.024  24.345  1.00  0.00     0.114 A 
ATOM     17  N   UNL     1       7.408 -29.945  25.646  1.00  0.00    -0.079 NA
BRANCH  16  18
ATOM     18  C   UNL     1       7.266 -31.115  23.489  1.00  0.00     0.004 A 
ATOM     19  C   UNL     1       7.839 -31.333  22.224  1.00  0.00     0.010 A 
ATOM     20  C   UNL     1       6.234 -31.969  23.907  1.00  0.00     0.010 A 
ATOM     21  C   UNL     1       7.390 -32.371  21.402  1.00  0.00     0.001 A 
ATOM     22  C   UNL     1       5.785 -33.007  23.084  1.00  0.00     0.001 A 
ATOM     23  C   UNL     1       6.362 -33.206  21.832  1.00  0.00     0.000 A 
ENDBRANCH  16  18
ENDBRANCH  12  13
ENDBRANCH   1  12
TORSDOF 5
ENDMDL
MODEL 5
REMARK VINA RESULT:    -6.696      3.981      6.096
REMARK INTER + INTRA:          -9.316
REMARK INTER:                  -8.408
REMARK INTRA:                  -0.908
REMARK UNBOUND:                -0.663
REMARK SMILES Cc1ccc(C(C)C)cc1OCc1cc(-c2ccccc2)no1
REMARK SMILES IDX 11 1 10 2 2 3 3 4 4 5 9 6 5 7 1 8 6 9 7 10 8 11 12 12 13 13
REMARK SMILES IDX 14 14 23 15 15 16 22 17 16 18 17 19 21 20 18 21 20 22 19 23
REMARK H PARENT
ROOT
ATOM      1  O   UNL     1       8.715 -27.597  22.498  1.00  0.00    -0.485 OA
ENDROOT
BRANCH   1   2
ATOM      2  C   UNL     1       9.959 -27.412  23.046  1.00  0.00     0.123 A 
ATOM      3  C   UNL     1       9.977 -26.894  24.352  1.00  0.00    -0.009 A 
ATOM      4  C   UNL     1      11.207 -26.691  24.993  1.00  0.00     0.007 A 
ATOM      5  C   UNL     1      12.404 -27.008  24.350  1.00  0.00     0.004 A 
ATOM      6  C   UNL     1      11.164 -27.739  22.415  1.00  0.00     0.050 A 
ATOM      7  C   UNL     1      12.399 -27.539  23.056  1.00  0.00    -0.042 A 
ATOM      8  C   UNL     1       8.698 -26.552  25.065  1.00  0.00     0.048 C 
BRANCH   7   9
ATOM      9  C   UNL     1      13.713 -27.896  22.381  1.00  0.00     0.013 C 
ATOM     10  C   UNL     1      14.514 -26.643  22.017  1.00  0.00     0.012 C 
ATOM     11  C   UNL     1      14.548 -28.848  23.240  1.00  0.00     0.012 C 
ENDBRANCH   7   9
ENDBRANCH   1   2
BRANCH   1  12
ATOM     12  C   UNL     1       8.467 -28.805  21.772  1.00  0.00     0.307 C 
BRANCH  12  13
ATOM     13  C   UNL     1       8.101 -29.878  22.722  1.00  0.00     0.174 A 
ATOM     14  C   UNL     1       7.492 -29.924  23.952  1.00  0.00     0.081 A 
ATOM     15  O   UNL     1       8.423 -31.142  22.346  1.00  0.00    -0.357 OA
ATOM     16  C   UNL     1       7.474 -31.298  24.309  1.00  0.00     0.114 A 
ATOM     17  N   UNL     1       8.035 -32.028  23.328  1.00  0.00    -0.079 NA
BRANCH  16  18
ATOM     18  C   UNL     1       6.948 -31.919  25.530  1.00  0.00     0.004 A 
ATOM     19  C   UNL     1       5.827 -32.764  25.475  1.00  0.00     0.010 A 
ATOM     20  C   UNL     1       7.547 -31.689  26.777  1.00  0.00     0.010 A 
ATOM     21  C   UNL     1       5.319 -33.358  26.634  1.00  0.00     0.001 A 
ATOM     22  C   UNL     1       7.039 -32.283  27.937  1.00  0.00     0.001 A 
ATOM     23  C   UNL     1       5.924 -33.116  27.865  1.00  0.00     0.000 A 
ENDBRANCH  16  18
ENDBRANCH  12  13
ENDBRANCH   1  12
TORSDOF 5
ENDMDL
MODEL 6
REMARK VINA RESULT:    -6.681      3.720      6.403
REMARK INTER + INTRA:          -9.297
REMARK INTER:                  -8.462
REMARK INTRA:                  -0.835
REMARK UNBOUND:                -0.663
REMARK SMILES Cc1ccc(C(C)C)cc1OCc1cc(-c2ccccc2)no1
REMARK SMILES IDX 11 1 10 2 2 3 3 4 4 5 9 6 5 7 1 8 6 9 7 10 8 11 12 12 13 13
REMARK SMILES IDX 14 14 23 15 15 16 22 17 16 18 17 19 21 20 18 21 20 22 19 23
REMARK H PARENT
ROOT
ATOM      1  O   UNL     1       8.539 -26.220  19.806  1.00  0.00    -0.485 OA
ENDROOT
BRANCH   1   2
ATOM      2  C   UNL     1       7.483 -25.355  19.940  1.00  0.00     0.123 A 
ATOM      3  C   UNL     1       6.332 -25.680  19.203  1.00  0.00    -0.009 A 
ATOM      4  C   UNL     1       5.202 -24.857  19.297  1.00  0.00     0.007 A 
ATOM      5  C   UNL     1       5.209 -23.731  20.120  1.00  0.00     0.004 A 
ATOM      6  C   UNL     1       7.476 -24.230  20.773  1.00  0.00     0.050 A 
ATOM      7  C   UNL     1       6.343 -23.405  20.872  1.00  0.00    -0.042 A 
ATOM      8  C   UNL     1       6.301 -26.893  18.315  1.00  0.00     0.048 C 
BRANCH   7   9
ATOM      9  C   UNL     1       6.323 -22.185  21.777  1.00  0.00     0.013 C 
ATOM     10  C   UNL     1       7.609 -21.365  21.641  1.00  0.00     0.012 C 
ATOM     11  C   UNL     1       5.091 -21.315  21.525  1.00  0.00     0.012 C 
ENDBRANCH   7   9
ENDBRANCH   1   2
BRANCH   1  12
ATOM     12  C   UNL     1       9.352 -26.481  20.954  1.00  0.00     0.307 C 
BRANCH  12  13
ATOM     13  C   UNL     1       8.965 -27.783  21.540  1.00  0.00     0.174 A 
ATOM     14  C   UNL     1       7.823 -28.545  21.549  1.00  0.00     0.081 A 
ATOM     15  O   UNL     1       9.923 -28.422  22.257  1.00  0.00    -0.357 OA
ATOM     16  C   UNL     1       8.143 -29.689  22.329  1.00  0.00     0.114 A 
ATOM     17  N   UNL     1       9.419 -29.607  22.748  1.00  0.00    -0.079 NA
BRANCH  16  18
ATOM     18  C   UNL     1       7.287 -30.828  22.674  1.00  0.00     0.004 A 
ATOM     19  C   UNL     1       7.033 -31.149  24.019  1.00  0.00     0.010 A 
ATOM     20  C   UNL     1       6.700 -31.623  21.679  1.00  0.00     0.010 A 
ATOM     21  C   UNL     1       6.219 -32.234  24.356  1.00  0.00     0.001 A 
ATOM     22  C   UNL     1       5.885 -32.709  22.017  1.00  0.00     0.001 A 
ATOM     23  C   UNL     1       5.646 -33.014  23.355  1.00  0.00     0.000 A 
ENDBRANCH  16  18
ENDBRANCH  12  13
ENDBRANCH   1  12
TORSDOF 5
ENDMDL
MODEL 7
REMARK VINA RESULT:    -6.679      3.066      4.735
REMARK INTER + INTRA:          -9.295
REMARK INTER:                  -8.858
REMARK INTRA:                  -0.436
REMARK UNBOUND:                -0.663
REMARK SMILES Cc1ccc(C(C)C)cc1OCc1cc(-c2ccccc2)no1
REMARK SMILES IDX 11 1 10 2 2 3 3 4 4 5 9 6 5 7 1 8 6 9 7 10 8 11 12 12 13 13
REMARK SMILES IDX 14 14 23 15 15 16 22 17 16 18 17 19 21 20 18 21 20 22 19 23
REMARK H PARENT
ROOT
ATOM      1  O   UNL     1       9.339 -25.648  22.029  1.00  0.00    -0.485 OA
ENDROOT
BRANCH   1   2
ATOM      2  C   UNL     1      10.635 -25.279  22.289  1.00  0.00     0.123 A 
ATOM      3  C   UNL     1      10.842 -23.909  22.522  1.00  0.00    -0.009 A 
ATOM      4  C   UNL     1      12.134 -23.450  22.813  1.00  0.00     0.007 A 
ATOM      5  C   UNL     1      13.205 -24.340  22.883  1.00  0.00     0.004 A 
ATOM      6  C   UNL     1      11.714 -26.166  22.375  1.00  0.00     0.050 A 
ATOM      7  C   UNL     1      13.010 -25.709  22.670  1.00  0.00    -0.042 A 
ATOM      8  C   UNL     1       9.700 -22.933  22.458  1.00  0.00     0.048 C 
BRANCH   7   9
ATOM      9  C   UNL     1      14.187 -26.664  22.770  1.00  0.00     0.013 C 
ATOM     10  C   UNL     1      14.174 -27.433  24.095  1.00  0.00     0.012 C 
ATOM     11  C   UNL     1      14.236 -27.626  21.581  1.00  0.00     0.012 C 
ENDBRANCH   7   9
ENDBRANCH   1   2
BRANCH   1  12
ATOM     12  C   UNL     1       9.100 -26.585  20.975  1.00  0.00     0.307 C 
BRANCH  12  13
ATOM     13  C   UNL     1       8.731 -27.893  21.560  1.00  0.00     0.174 A 
ATOM     14  C   UNL     1       7.552 -28.561  21.786  1.00  0.00     0.081 A 
ATOM     15  O   UNL     1       9.760 -28.661  22.001  1.00  0.00    -0.357 OA
ATOM     16  C   UNL     1       7.928 -29.783  22.406  1.00  0.00     0.114 A 
ATOM     17  N   UNL     1       9.267 -29.835  22.526  1.00  0.00    -0.079 NA
BRANCH  16  18
ATOM     18  C   UNL     1       7.066 -30.874  22.872  1.00  0.00     0.004 A 
ATOM     19  C   UNL     1       6.695 -30.962  24.225  1.00  0.00     0.010 A 
ATOM     20  C   UNL     1       6.590 -31.852  21.987  1.00  0.00     0.010 A 
ATOM     21  C   UNL     1       5.874 -31.999  24.677  1.00  0.00     0.001 A 
ATOM     22  C   UNL     1       5.770 -32.890  22.441  1.00  0.00     0.001 A 
ATOM     23  C   UNL     1       5.413 -32.963  23.785  1.00  0.00     0.000 A 
ENDBRANCH  16  18
ENDBRANCH  12  13
ENDBRANCH   1  12
TORSDOF 5
ENDMDL
MODEL 8
REMARK VINA RESULT:    -6.591      4.182      7.969
REMARK INTER + INTRA:          -9.181
REMARK INTER:                  -8.568
REMARK INTRA:                  -0.613
REMARK UNBOUND:                -0.663
REMARK SMILES Cc1ccc(C(C)C)cc1OCc1cc(-c2ccccc2)no1
REMARK SMILES IDX 11 1 10 2 2 3 3 4 4 5 9 6 5 7 1 8 6 9 7 10 8 11 12 12 13 13
REMARK SMILES IDX 14 14 23 15 15 16 22 17 16 18 17 19 21 20 18 21 20 22 19 23
REMARK H PARENT
ROOT
ATOM      1  O   UNL     1       7.911 -30.748  22.266  1.00  0.00    -0.485 OA
ENDROOT
BRANCH   1   2
ATOM      2  C   UNL     1       7.089 -31.486  23.079  1.00  0.00     0.123 A 
ATOM      3  C   UNL     1       6.256 -32.409  22.425  1.00  0.00    -0.009 A 
ATOM      4  C   UNL     1       5.397 -33.215  23.184  1.00  0.00     0.007 A 
ATOM      5  C   UNL     1       5.373 -33.116  24.575  1.00  0.00     0.004 A 
ATOM      6  C   UNL     1       7.067 -31.402  24.476  1.00  0.00     0.050 A 
ATOM      7  C   UNL     1       6.210 -32.212  25.240  1.00  0.00    -0.042 A 
ATOM      8  C   UNL     1       6.271 -32.537  20.927  1.00  0.00     0.048 C 
BRANCH   7   9
ATOM      9  C   UNL     1       6.182 -32.133  26.757  1.00  0.00     0.013 C 
ATOM     10  C   UNL     1       5.531 -33.376  27.371  1.00  0.00     0.012 C 
ATOM     11  C   UNL     1       7.580 -31.907  27.336  1.00  0.00     0.012 C 
ENDBRANCH   7   9
ENDBRANCH   1   2
BRANCH   1  12
ATOM     12  C   UNL     1       7.596 -29.369  22.054  1.00  0.00     0.307 C 
BRANCH  12  13
ATOM     13  C   UNL     1       8.818 -28.555  22.239  1.00  0.00     0.174 A 
ATOM     14  C   UNL     1       9.104 -27.212  22.231  1.00  0.00     0.081 A 
ATOM     15  O   UNL     1       9.964 -29.245  22.470  1.00  0.00    -0.357 OA
ATOM     16  C   UNL     1      10.503 -27.127  22.461  1.00  0.00     0.114 A 
ATOM     17  N   UNL     1      11.013 -28.362  22.610  1.00  0.00    -0.079 NA
BRANCH  16  18
ATOM     18  C   UNL     1      11.344 -25.928  22.543  1.00  0.00     0.004 A 
ATOM     19  C   UNL     1      10.879 -24.694  22.055  1.00  0.00     0.010 A 
ATOM     20  C   UNL     1      12.627 -25.978  23.108  1.00  0.00     0.010 A 
ATOM     21  C   UNL     1      11.675 -23.548  22.128  1.00  0.00     0.001 A 
ATOM     22  C   UNL     1      13.423 -24.831  23.180  1.00  0.00     0.001 A 
ATOM     23  C   UNL     1      12.947 -23.617  22.689  1.00  0.00     0.000 A 
ENDBRANCH  16  18
ENDBRANCH  12  13
ENDBRANCH   1  12
TORSDOF 5
ENDMDL
