MODEL 1
REMARK VINA RESULT:    -4.745      0.000      0.000
REMARK INTER + INTRA:          -5.261
REMARK INTER:                  -5.161
REMARK INTRA:                  -0.100
REMARK UNBOUND:                -0.100
REMARK SMILES Cc1ccc(C(C)C)cc1O
REMARK SMILES IDX 1 1 2 2 3 3 4 4 5 5 9 6 10 7 11 8 6 10 7 11 8 12
REMARK H PARENT 11 9
ROOT
ATOM      1  C   UNL     1      10.235 -23.143  24.206  1.00  0.00     0.048 C 
ATOM      2  C   UNL     1      11.271 -24.187  23.905  1.00  0.00    -0.009 A 
ATOM      3  C   UNL     1      12.457 -23.813  23.259  1.00  0.00     0.007 A 
ATOM      4  C   UNL     1      13.444 -24.759  22.963  1.00  0.00     0.004 A 
ATOM      5  C   UNL     1      13.271 -26.107  23.306  1.00  0.00    -0.042 A 
ATOM      6  C   UNL     1      12.085 -26.480  23.952  1.00  0.00     0.050 A 
ATOM      7  C   UNL     1      11.103 -25.532  24.246  1.00  0.00     0.118 A 
ENDROOT
BRANCH   7   8
ATOM      8  O   UNL     1       9.986 -26.004  24.876  1.00  0.00    -0.508 OA
ATOM      9  H   UNL     1      10.062 -26.964  24.987  1.00  0.00     0.293 HD
ENDBRANCH   7   8
BRANCH   5  10
ATOM     10  C   UNL     1      14.353 -27.118  22.977  1.00  0.00     0.013 C 
ATOM     11  C   UNL     1      14.447 -28.209  24.046  1.00  0.00     0.012 C 
ATOM     12  C   UNL     1      14.147 -27.730  21.589  1.00  0.00     0.012 C 
ENDBRANCH   5  10
TORSDOF 2
ENDMDL
MODEL 2
REMARK VINA RESULT:    -4.706      2.036      4.498
REMARK INTER + INTRA:          -5.219
REMARK INTER:                  -5.123
REMARK INTRA:                  -0.095
REMARK UNBOUND:                -0.100
REMARK SMILES Cc1ccc(C(C)C)cc1O
REMARK SMILES IDX 1 1 2 2 3 3 4 4 5 5 9 6 10 7 11 8 6 10 7 11 8 12
REMARK H PARENT 11 9
ROOT
ATOM      1  C   UNL     1      14.556 -28.022  24.388  1.00  0.00     0.048 C 
ATOM      2  C   UNL     1      13.578 -26.939  24.035  1.00  0.00    -0.009 A 
ATOM      3  C   UNL     1      12.318 -26.922  24.649  1.00  0.00     0.007 A 
ATOM      4  C   UNL     1      11.383 -25.928  24.344  1.00  0.00     0.004 A 
ATOM      5  C   UNL     1      11.682 -24.923  23.415  1.00  0.00    -0.042 A 
ATOM      6  C   UNL     1      12.941 -24.941  22.801  1.00  0.00     0.050 A 
ATOM      7  C   UNL     1      13.872 -25.934  23.108  1.00  0.00     0.118 A 
ENDROOT
BRANCH   7   8
ATOM      8  O   UNL     1      15.068 -25.857  22.452  1.00  0.00    -0.508 OA
ATOM      9  H   UNL     1      15.034 -25.132  21.809  1.00  0.00     0.293 HD
ENDBRANCH   7   8
BRANCH   5  10
ATOM     10  C   UNL     1      10.653 -23.854  23.097  1.00  0.00     0.013 C 
ATOM     11  C   UNL     1      11.214 -22.449  23.328  1.00  0.00     0.012 C 
ATOM     12  C   UNL     1      10.113 -23.998  21.672  1.00  0.00     0.012 C 
ENDBRANCH   5  10
TORSDOF 2
ENDMDL
MODEL 3
REMARK VINA RESULT:    -4.621      1.566      2.124
REMARK INTER + INTRA:          -5.126
REMARK INTER:                  -5.001
REMARK INTRA:                  -0.125
REMARK UNBOUND:                -0.100
REMARK SMILES Cc1ccc(C(C)C)cc1O
REMARK SMILES IDX 1 1 2 2 3 3 4 4 5 5 9 6 10 7 11 8 6 10 7 11 8 12
REMARK H PARENT 11 9
ROOT
ATOM      1  C   UNL     1      10.072 -23.009  23.781  1.00  0.00     0.048 C 
ATOM      2  C   UNL     1      11.169 -24.023  23.638  1.00  0.00    -0.009 A 
ATOM      3  C   UNL     1      11.050 -25.263  24.282  1.00  0.00     0.007 A 
ATOM      4  C   UNL     1      12.054 -26.231  24.171  1.00  0.00     0.004 A 
ATOM      5  C   UNL     1      13.206 -25.985  23.413  1.00  0.00    -0.042 A 
ATOM      6  C   UNL     1      13.325 -24.745  22.770  1.00  0.00     0.050 A 
ATOM      7  C   UNL     1      12.321 -23.782  22.883  1.00  0.00     0.118 A 
ENDROOT
BRANCH   7   8
ATOM      8  O   UNL     1      12.539 -22.610  22.217  1.00  0.00    -0.508 OA
ATOM      9  H   UNL     1      11.904 -22.532  21.489  1.00  0.00     0.293 HD
ENDBRANCH   7   8
BRANCH   5  10
ATOM     10  C   UNL     1      14.283 -27.048  23.305  1.00  0.00     0.013 C 
ATOM     11  C   UNL     1      14.484 -27.780  24.633  1.00  0.00     0.012 C 
ATOM     12  C   UNL     1      13.987 -28.037  22.176  1.00  0.00     0.012 C 
ENDBRANCH   5  10
TORSDOF 2
ENDMDL
MODEL 4
REMARK VINA RESULT:    -4.604      1.704      4.276
REMARK INTER + INTRA:          -5.108
REMARK INTER:                  -4.983
REMARK INTRA:                  -0.125
REMARK UNBOUND:                -0.100
REMARK SMILES Cc1ccc(C(C)C)cc1O
REMARK SMILES IDX 1 1 2 2 3 3 4 4 5 5 9 6 10 7 11 8 6 10 7 11 8 12
REMARK H PARENT 11 9
ROOT
ATOM      1  C   UNL     1      14.297 -28.352  22.347  1.00  0.00     0.048 C 
ATOM      2  C   UNL     1      13.520 -27.074  22.473  1.00  0.00    -0.009 A 
ATOM      3  C   UNL     1      14.174 -25.910  22.901  1.00  0.00     0.007 A 
ATOM      4  C   UNL     1      13.482 -24.702  23.030  1.00  0.00     0.004 A 
ATOM      5  C   UNL     1      12.115 -24.624  22.735  1.00  0.00    -0.042 A 
ATOM      6  C   UNL     1      11.461 -25.787  22.307  1.00  0.00     0.050 A 
ATOM      7  C   UNL     1      12.155 -26.991  22.179  1.00  0.00     0.118 A 
ENDROOT
BRANCH   7   8
ATOM      8  O   UNL     1      11.422 -28.063  21.756  1.00  0.00    -0.508 OA
ATOM      9  H   UNL     1      11.161 -27.927  20.832  1.00  0.00     0.293 HD
ENDBRANCH   7   8
BRANCH   5  10
ATOM     10  C   UNL     1      11.381 -23.304  22.882  1.00  0.00     0.013 C 
ATOM     11  C   UNL     1      10.401 -23.334  24.057  1.00  0.00     0.012 C 
ATOM     12  C   UNL     1      12.355 -22.130  23.014  1.00  0.00     0.012 C 
ENDBRANCH   5  10
TORSDOF 2
ENDMDL
MODEL 5
REMARK VINA RESULT:    -4.589      2.460      3.360
REMARK INTER + INTRA:          -5.092
REMARK INTER:                  -4.990
REMARK INTRA:                  -0.101
REMARK UNBOUND:                -0.100
REMARK SMILES Cc1ccc(C(C)C)cc1O
REMARK SMILES IDX 1 1 2 2 3 3 4 4 5 5 9 6 10 7 11 8 6 10 7 11 8 12
REMARK H PARENT 11 9
ROOT
ATOM      1  C   UNL     1       8.101 -28.371  23.536  1.00  0.00     0.048 C 
ATOM      2  C   UNL     1       9.543 -27.958  23.602  1.00  0.00    -0.009 A 
ATOM      3  C   UNL     1      10.050 -27.416  24.791  1.00  0.00     0.007 A 
ATOM      4  C   UNL     1      11.388 -27.021  24.888  1.00  0.00     0.004 A 
ATOM      5  C   UNL     1      12.257 -27.157  23.797  1.00  0.00    -0.042 A 
ATOM      6  C   UNL     1      11.749 -27.698  22.609  1.00  0.00     0.050 A 
ATOM      7  C   UNL     1      10.414 -28.092  22.516  1.00  0.00     0.118 A 
ENDROOT
BRANCH   7   8
ATOM      8  O   UNL     1      10.023 -28.607  21.312  1.00  0.00    -0.508 OA
ATOM      9  H   UNL     1      10.806 -28.900  20.821  1.00  0.00     0.293 HD
ENDBRANCH   7   8
BRANCH   5  10
ATOM     10  C   UNL     1      13.705 -26.721  23.922  1.00  0.00     0.013 C 
ATOM     11  C   UNL     1      14.579 -27.837  24.500  1.00  0.00     0.012 C 
ATOM     12  C   UNL     1      14.262 -26.230  22.584  1.00  0.00     0.012 C 
ENDBRANCH   5  10
TORSDOF 2
ENDMDL
MODEL 6
REMARK VINA RESULT:    -4.559      3.143      4.421
REMARK INTER + INTRA:          -5.059
REMARK INTER:                  -4.951
REMARK INTRA:                  -0.108
REMARK UNBOUND:                -0.100
REMARK SMILES Cc1ccc(C(C)C)cc1O
REMARK SMILES IDX 1 1 2 2 3 3 4 4 5 5 9 6 10 7 11 8 6 10 7 11 8 12
REMARK H PARENT 11 9
ROOT
ATOM      1  C   UNL     1      13.821 -19.434  24.286  1.00  0.00     0.048 C 
ATOM      2  C   UNL     1      13.265 -20.783  23.934  1.00  0.00    -0.009 A 
ATOM      3  C   UNL     1      11.899 -21.035  24.122  1.00  0.00     0.007 A 
ATOM      4  C   UNL     1      11.347 -22.281  23.805  1.00  0.00     0.004 A 
ATOM      5  C   UNL     1      12.147 -23.309  23.290  1.00  0.00    -0.042 A 
ATOM      6  C   UNL     1      13.513 -23.057  23.103  1.00  0.00     0.050 A 
ATOM      7  C   UNL     1      14.059 -21.813  23.420  1.00  0.00     0.118 A 
ENDROOT
BRANCH   7   8
ATOM      8  O   UNL     1      15.401 -21.675  23.199  1.00  0.00    -0.508 OA
ATOM      9  H   UNL     1      15.549 -21.447  22.268  1.00  0.00     0.293 HD
ENDBRANCH   7   8
BRANCH   5  10
ATOM     10  C   UNL     1      11.529 -24.653  22.953  1.00  0.00     0.013 C 
ATOM     11  C   UNL     1      10.629 -24.564  21.718  1.00  0.00     0.012 C 
ATOM     12  C   UNL     1      12.598 -25.734  22.772  1.00  0.00     0.012 C 
ENDBRANCH   5  10
TORSDOF 2
ENDMDL
MODEL 7
REMARK VINA RESULT:    -4.558      2.726      3.155
REMARK INTER + INTRA:          -5.058
REMARK INTER:                  -4.932
REMARK INTRA:                  -0.126
REMARK UNBOUND:                -0.100
REMARK SMILES Cc1ccc(C(C)C)cc1O
REMARK SMILES IDX 1 1 2 2 3 3 4 4 5 5 9 6 10 7 11 8 6 10 7 11 8 12
REMARK H PARENT 11 9
ROOT
ATOM      1  C   UNL     1       8.263 -25.497  20.513  1.00  0.00     0.048 C 
ATOM      2  C   UNL     1       9.580 -25.576  21.228  1.00  0.00    -0.009 A 
ATOM      3  C   UNL     1      10.100 -26.831  21.576  1.00  0.00     0.007 A 
ATOM      4  C   UNL     1      11.325 -26.942  22.243  1.00  0.00     0.004 A 
ATOM      5  C   UNL     1      12.063 -25.801  22.581  1.00  0.00    -0.042 A 
ATOM      6  C   UNL     1      11.543 -24.547  22.234  1.00  0.00     0.050 A 
ATOM      7  C   UNL     1      10.321 -24.440  21.568  1.00  0.00     0.118 A 
ENDROOT
BRANCH   7   8
ATOM      8  O   UNL     1       9.907 -23.171  21.278  1.00  0.00    -0.508 OA
ATOM      9  H   UNL     1       9.924 -22.636  22.086  1.00  0.00     0.293 HD
ENDBRANCH   7   8
BRANCH   5  10
ATOM     10  C   UNL     1      13.389 -25.943  23.306  1.00  0.00     0.013 C 
ATOM     11  C   UNL     1      13.286 -26.919  24.480  1.00  0.00     0.012 C 
ATOM     12  C   UNL     1      14.511 -26.356  22.350  1.00  0.00     0.012 C 
ENDBRANCH   5  10
TORSDOF 2
ENDMDL
MODEL 8
REMARK VINA RESULT:    -4.512      2.065      2.552
REMARK INTER + INTRA:          -5.008
REMARK INTER:                  -4.883
REMARK INTRA:                  -0.125
REMARK UNBOUND:                -0.100
REMARK SMILES Cc1ccc(C(C)C)cc1O
REMARK SMILES IDX 1 1 2 2 3 3 4 4 5 5 9 6 10 7 11 8 6 10 7 11 8 12
REMARK H PARENT 11 9
ROOT
ATOM      1  C   UNL     1      12.631 -21.942  22.677  1.00  0.00     0.048 C 
ATOM      2  C   UNL     1      12.460 -23.431  22.602  1.00  0.00    -0.009 A 
ATOM      3  C   UNL     1      13.440 -24.266  23.155  1.00  0.00     0.007 A 
ATOM      4  C   UNL     1      13.313 -25.658  23.103  1.00  0.00     0.004 A 
ATOM      5  C   UNL     1      12.201 -26.254  22.494  1.00  0.00    -0.042 A 
ATOM      6  C   UNL     1      11.221 -25.419  21.940  1.00  0.00     0.050 A 
ATOM      7  C   UNL     1      11.351 -24.031  21.995  1.00  0.00     0.118 A 
ENDROOT
BRANCH   7   8
ATOM      8  O   UNL     1      10.339 -23.312  21.424  1.00  0.00    -0.508 OA
ATOM      9  H   UNL     1       9.614 -23.220  22.061  1.00  0.00     0.293 HD
ENDBRANCH   7   8
BRANCH   5  10
ATOM     10  C   UNL     1      12.082 -27.766  22.447  1.00  0.00     0.013 C 
ATOM     11  C   UNL     1      13.267 -28.445  23.138  1.00  0.00     0.012 C 
ATOM     12  C   UNL     1      10.756 -28.245  23.042  1.00  0.00     0.012 C 
ENDBRANCH   5  10
TORSDOF 2
ENDMDL
