MODEL 1
REMARK VINA RESULT:    -6.957      0.000      0.000
REMARK INTER + INTRA:          -9.643
REMARK INTER:                  -8.991
REMARK INTRA:                  -0.652
REMARK UNBOUND:                -0.652
REMARK SMILES Cc1ccc(C(C)C)cc1OCc1cc(-c2ccccc2)no1
REMARK SMILES IDX 11 1 10 2 2 3 3 4 4 5 9 6 5 7 1 8 6 9 7 10 8 11 12 12 13 13
REMARK SMILES IDX 14 14 23 15 15 16 22 17 16 18 17 19 21 20 18 21 20 22 19 23
REMARK H PARENT
ROOT
ATOM      1  O   UNL     1      11.568 -27.362  24.949  1.00  0.00    -0.485 OA
ENDROOT
BRANCH   1   2
ATOM      2  C   UNL     1      12.131 -26.313  24.268  1.00  0.00     0.123 A 
ATOM      3  C   UNL     1      13.306 -26.610  23.557  1.00  0.00    -0.009 A 
ATOM      4  C   UNL     1      13.936 -25.598  22.820  1.00  0.00     0.007 A 
ATOM      5  C   UNL     1      13.401 -24.310  22.780  1.00  0.00     0.004 A 
ATOM      6  C   UNL     1      11.595 -25.021  24.211  1.00  0.00     0.050 A 
ATOM      7  C   UNL     1      12.223 -24.005  23.470  1.00  0.00    -0.042 A 
ATOM      8  C   UNL     1      13.895 -27.992  23.582  1.00  0.00     0.048 C 
BRANCH   7   9
ATOM      9  C   UNL     1      11.647 -22.602  23.397  1.00  0.00     0.013 C 
ATOM     10  C   UNL     1      10.353 -22.483  24.209  1.00  0.00     0.012 C 
ATOM     11  C   UNL     1      12.666 -21.549  23.837  1.00  0.00     0.012 C 
ENDBRANCH   7   9
ENDBRANCH   1   2
BRANCH   1  12
ATOM     12  C   UNL     1      10.141 -27.465  24.977  1.00  0.00     0.307 C 
BRANCH  12  13
ATOM     13  C   UNL     1       9.630 -27.539  23.590  1.00  0.00     0.174 A 
ATOM     14  C   UNL     1       8.754 -26.799  22.835  1.00  0.00     0.081 A 
ATOM     15  O   UNL     1      10.101 -28.564  22.836  1.00  0.00    -0.357 OA
ATOM     16  C   UNL     1       8.710 -27.448  21.572  1.00  0.00     0.114 A 
ATOM     17  N   UNL     1       9.533 -28.512  21.581  1.00  0.00    -0.079 NA
BRANCH  16  18
ATOM     18  C   UNL     1       7.925 -27.088  20.386  1.00  0.00     0.004 A 
ATOM     19  C   UNL     1       8.353 -26.057  19.532  1.00  0.00     0.010 A 
ATOM     20  C   UNL     1       6.734 -27.759  20.072  1.00  0.00     0.010 A 
ATOM     21  C   UNL     1       7.610 -25.707  18.401  1.00  0.00     0.001 A 
ATOM     22  C   UNL     1       5.991 -27.409  18.940  1.00  0.00     0.001 A 
ATOM     23  C   UNL     1       6.429 -26.382  18.107  1.00  0.00     0.000 A 
ENDBRANCH  16  18
ENDBRANCH  12  13
ENDBRANCH   1  12
TORSDOF 5
ENDMDL
MODEL 2
REMARK VINA RESULT:    -6.760      4.003      6.414
REMARK INTER + INTRA:          -9.388
REMARK INTER:                  -8.482
REMARK INTRA:                  -0.906
REMARK UNBOUND:                -0.652
REMARK SMILES Cc1ccc(C(C)C)cc1OCc1cc(-c2ccccc2)no1
REMARK SMILES IDX 11 1 10 2 2 3 3 4 4 5 9 6 5 7 1 8 6 9 7 10 8 11 12 12 13 13
REMARK SMILES IDX 14 14 23 15 15 16 22 17 16 18 17 19 21 20 18 21 20 22 19 23
REMARK H PARENT
ROOT
ATOM      1  O   UNL     1       8.666 -27.829  22.526  1.00  0.00    -0.485 OA
ENDROOT
BRANCH   1   2
ATOM      2  C   UNL     1       9.904 -27.602  23.070  1.00  0.00     0.123 A 
ATOM      3  C   UNL     1       9.910 -27.098  24.381  1.00  0.00    -0.009 A 
ATOM      4  C   UNL     1      11.135 -26.855  25.018  1.00  0.00     0.007 A 
ATOM      5  C   UNL     1      12.340 -27.120  24.365  1.00  0.00     0.004 A 
ATOM      6  C   UNL     1      11.118 -27.876  22.429  1.00  0.00     0.050 A 
ATOM      7  C   UNL     1      12.348 -27.637  23.065  1.00  0.00    -0.042 A 
ATOM      8  C   UNL     1       8.624 -26.813  25.105  1.00  0.00     0.048 C 
BRANCH   7   9
ATOM      9  C   UNL     1      13.670 -27.936  22.380  1.00  0.00     0.013 C 
ATOM     10  C   UNL     1      14.412 -26.649  22.006  1.00  0.00     0.012 C 
ATOM     11  C   UNL     1      14.554 -28.848  23.233  1.00  0.00     0.012 C 
ENDBRANCH   7   9
ENDBRANCH   1   2
BRANCH   1  12
ATOM     12  C   UNL     1       8.435 -29.073  21.859  1.00  0.00     0.307 C 
BRANCH  12  13
ATOM     13  C   UNL     1       8.108 -30.111  22.860  1.00  0.00     0.174 A 
ATOM     14  C   UNL     1       7.441 -30.129  24.061  1.00  0.00     0.081 A 
ATOM     15  O   UNL     1       8.548 -31.365  22.586  1.00  0.00    -0.357 OA
ATOM     16  C   UNL     1       7.514 -31.476  24.508  1.00  0.00     0.114 A 
ATOM     17  N   UNL     1       8.181 -32.217  23.605  1.00  0.00    -0.079 NA
BRANCH  16  18
ATOM     18  C   UNL     1       6.976 -32.059  25.741  1.00  0.00     0.004 A 
ATOM     19  C   UNL     1       5.805 -32.835  25.713  1.00  0.00     0.010 A 
ATOM     20  C   UNL     1       7.613 -31.863  26.976  1.00  0.00     0.010 A 
ATOM     21  C   UNL     1       5.286 -33.394  26.884  1.00  0.00     0.001 A 
ATOM     22  C   UNL     1       7.093 -32.422  28.147  1.00  0.00     0.001 A 
ATOM     23  C   UNL     1       5.929 -33.186  28.101  1.00  0.00     0.000 A 
ENDBRANCH  16  18
ENDBRANCH  12  13
ENDBRANCH   1  12
TORSDOF 5
ENDMDL
MODEL 3
REMARK VINA RESULT:    -6.753      4.881      8.574
REMARK INTER + INTRA:          -9.379
REMARK INTER:                  -8.845
REMARK INTRA:                  -0.534
REMARK UNBOUND:                -0.652
REMARK SMILES Cc1ccc(C(C)C)cc1OCc1cc(-c2ccccc2)no1
REMARK SMILES IDX 11 1 10 2 2 3 3 4 4 5 9 6 5 7 1 8 6 9 7 10 8 11 12 12 13 13
REMARK SMILES IDX 14 14 23 15 15 16 22 17 16 18 17 19 21 20 18 21 20 22 19 23
REMARK H PARENT
ROOT
ATOM      1  O   UNL     1       7.570 -31.263  23.690  1.00  0.00    -0.485 OA
ENDROOT
BRANCH   1   2
ATOM      2  C   UNL     1       6.634 -32.073  24.280  1.00  0.00     0.123 A 
ATOM      3  C   UNL     1       5.753 -32.725  23.401  1.00  0.00    -0.009 A 
ATOM      4  C   UNL     1       4.776 -33.585  23.921  1.00  0.00     0.007 A 
ATOM      5  C   UNL     1       4.681 -33.805  25.295  1.00  0.00     0.004 A 
ATOM      6  C   UNL     1       6.539 -32.310  25.656  1.00  0.00     0.050 A 
ATOM      7  C   UNL     1       5.563 -33.175  26.180  1.00  0.00    -0.042 A 
ATOM      8  C   UNL     1       5.842 -32.508  21.916  1.00  0.00     0.048 C 
BRANCH   7   9
ATOM      9  C   UNL     1       5.455 -33.442  27.672  1.00  0.00     0.013 C 
ATOM     10  C   UNL     1       6.414 -32.556  28.472  1.00  0.00     0.012 C 
ATOM     11  C   UNL     1       4.018 -33.283  28.171  1.00  0.00     0.012 C 
ENDBRANCH   7   9
ENDBRANCH   1   2
BRANCH   1  12
ATOM     12  C   UNL     1       7.512 -29.858  23.950  1.00  0.00     0.307 C 
BRANCH  12  13
ATOM     13  C   UNL     1       8.721 -29.209  23.396  1.00  0.00     0.174 A 
ATOM     14  C   UNL     1       9.736 -28.441  23.911  1.00  0.00     0.081 A 
ATOM     15  O   UNL     1       8.928 -29.373  22.065  1.00  0.00    -0.357 OA
ATOM     16  C   UNL     1      10.572 -28.135  22.803  1.00  0.00     0.114 A 
ATOM     17  N   UNL     1      10.077 -28.709  21.691  1.00  0.00    -0.079 NA
BRANCH  16  18
ATOM     18  C   UNL     1      11.799 -27.333  22.778  1.00  0.00     0.004 A 
ATOM     19  C   UNL     1      11.855 -26.092  23.437  1.00  0.00     0.010 A 
ATOM     20  C   UNL     1      12.945 -27.779  22.103  1.00  0.00     0.010 A 
ATOM     21  C   UNL     1      13.021 -25.321  23.417  1.00  0.00     0.001 A 
ATOM     22  C   UNL     1      14.111 -27.007  22.083  1.00  0.00     0.001 A 
ATOM     23  C   UNL     1      14.148 -25.778  22.739  1.00  0.00     0.000 A 
ENDBRANCH  16  18
ENDBRANCH  12  13
ENDBRANCH   1  12
TORSDOF 5
ENDMDL
MODEL 4
REMARK VINA RESULT:    -6.745      3.273      4.722
REMARK INTER + INTRA:          -9.368
REMARK INTER:                  -8.643
REMARK INTRA:                  -0.726
REMARK UNBOUND:                -0.652
REMARK SMILES Cc1ccc(C(C)C)cc1OCc1cc(-c2ccccc2)no1
REMARK SMILES IDX 11 1 10 2 2 3 3 4 4 5 9 6 5 7 1 8 6 9 7 10 8 11 12 12 13 13
REMARK SMILES IDX 14 14 23 15 15 16 22 17 16 18 17 19 21 20 18 21 20 22 19 23
REMARK H PARENT
ROOT
ATOM      1  O   UNL     1       9.494 -26.075  24.466  1.00  0.00    -0.485 OA
ENDROOT
BRANCH   1   2
ATOM      2  C   UNL     1      10.732 -25.666  24.038  1.00  0.00     0.123 A 
ATOM      3  C   UNL     1      10.911 -24.276  23.935  1.00  0.00    -0.009 A 
ATOM      4  C   UNL     1      12.152 -23.773  23.522  1.00  0.00     0.007 A 
ATOM      5  C   UNL     1      13.206 -24.638  23.225  1.00  0.00     0.004 A 
ATOM      6  C   UNL     1      11.799 -26.524  23.751  1.00  0.00     0.050 A 
ATOM      7  C   UNL     1      13.046 -26.023  23.340  1.00  0.00    -0.042 A 
ATOM      8  C   UNL     1       9.790 -23.327  24.256  1.00  0.00     0.048 C 
BRANCH   7   9
ATOM      9  C   UNL     1      14.212 -26.946  23.031  1.00  0.00     0.013 C 
ATOM     10  C   UNL     1      14.478 -27.919  24.184  1.00  0.00     0.012 C 
ATOM     11  C   UNL     1      14.003 -27.700  21.717  1.00  0.00     0.012 C 
ENDBRANCH   7   9
ENDBRANCH   1   2
BRANCH   1  12
ATOM     12  C   UNL     1       9.422 -26.945  25.599  1.00  0.00     0.307 C 
BRANCH  12  13
ATOM     13  C   UNL     1       8.713 -28.186  25.217  1.00  0.00     0.174 A 
ATOM     14  C   UNL     1       8.588 -28.919  24.063  1.00  0.00     0.081 A 
ATOM     15  O   UNL     1       7.994 -28.788  26.198  1.00  0.00    -0.357 OA
ATOM     16  C   UNL     1       7.734 -30.003  24.400  1.00  0.00     0.114 A 
ATOM     17  N   UNL     1       7.384 -29.917  25.696  1.00  0.00    -0.079 NA
BRANCH  16  18
ATOM     18  C   UNL     1       7.256 -31.092  23.541  1.00  0.00     0.004 A 
ATOM     19  C   UNL     1       7.816 -31.295  22.268  1.00  0.00     0.010 A 
ATOM     20  C   UNL     1       6.236 -31.956  23.964  1.00  0.00     0.010 A 
ATOM     21  C   UNL     1       7.365 -32.330  21.443  1.00  0.00     0.001 A 
ATOM     22  C   UNL     1       5.785 -32.991  23.138  1.00  0.00     0.001 A 
ATOM     23  C   UNL     1       6.349 -33.177  21.878  1.00  0.00     0.000 A 
ENDBRANCH  16  18
ENDBRANCH  12  13
ENDBRANCH   1  12
TORSDOF 5
ENDMDL
MODEL 5
REMARK VINA RESULT:    -6.687      2.725      4.377
REMARK INTER + INTRA:          -9.293
REMARK INTER:                  -8.512
REMARK INTRA:                  -0.781
REMARK UNBOUND:                -0.652
REMARK SMILES Cc1ccc(C(C)C)cc1OCc1cc(-c2ccccc2)no1
REMARK SMILES IDX 11 1 10 2 2 3 3 4 4 5 9 6 5 7 1 8 6 9 7 10 8 11 12 12 13 13
REMARK SMILES IDX 14 14 23 15 15 16 22 17 16 18 17 19 21 20 18 21 20 22 19 23
REMARK H PARENT
ROOT
ATOM      1  O   UNL     1      11.139 -23.727  23.978  1.00  0.00    -0.485 OA
ENDROOT
BRANCH   1   2
ATOM      2  C   UNL     1      11.461 -25.059  23.919  1.00  0.00     0.123 A 
ATOM      3  C   UNL     1      10.466 -25.945  24.366  1.00  0.00    -0.009 A 
ATOM      4  C   UNL     1      10.708 -27.325  24.322  1.00  0.00     0.007 A 
ATOM      5  C   UNL     1      11.916 -27.821  23.831  1.00  0.00     0.004 A 
ATOM      6  C   UNL     1      12.664 -25.566  23.416  1.00  0.00     0.050 A 
ATOM      7  C   UNL     1      12.908 -26.949  23.367  1.00  0.00    -0.042 A 
ATOM      8  C   UNL     1       9.155 -25.433  24.892  1.00  0.00     0.048 C 
BRANCH   7   9
ATOM      9  C   UNL     1      14.208 -27.510  22.818  1.00  0.00     0.013 C 
ATOM     10  C   UNL     1      14.574 -28.838  23.489  1.00  0.00     0.012 C 
ATOM     11  C   UNL     1      14.160 -27.662  21.297  1.00  0.00     0.012 C 
ENDBRANCH   7   9
ENDBRANCH   1   2
BRANCH   1  12
ATOM     12  C   UNL     1      11.055 -22.994  22.753  1.00  0.00     0.307 C 
BRANCH  12  13
ATOM     13  C   UNL     1       9.851 -23.423  22.009  1.00  0.00     0.174 A 
ATOM     14  C   UNL     1       8.522 -23.076  22.024  1.00  0.00     0.081 A 
ATOM     15  O   UNL     1      10.039 -24.393  21.078  1.00  0.00    -0.357 OA
ATOM     16  C   UNL     1       7.908 -23.907  21.049  1.00  0.00     0.114 A 
ATOM     17  N   UNL     1       8.836 -24.697  20.478  1.00  0.00    -0.079 NA
BRANCH  16  18
ATOM     18  C   UNL     1       6.496 -23.965  20.656  1.00  0.00     0.004 A 
ATOM     19  C   UNL     1       5.969 -25.121  20.055  1.00  0.00     0.010 A 
ATOM     20  C   UNL     1       5.638 -22.877  20.870  1.00  0.00     0.010 A 
ATOM     21  C   UNL     1       4.625 -25.183  19.677  1.00  0.00     0.001 A 
ATOM     22  C   UNL     1       4.293 -22.940  20.491  1.00  0.00     0.001 A 
ATOM     23  C   UNL     1       3.788 -24.092  19.894  1.00  0.00     0.000 A 
ENDBRANCH  16  18
ENDBRANCH  12  13
ENDBRANCH   1  12
TORSDOF 5
ENDMDL
MODEL 6
REMARK VINA RESULT:    -6.644      3.591      6.146
REMARK INTER + INTRA:          -9.238
REMARK INTER:                  -8.396
REMARK INTRA:                  -0.843
REMARK UNBOUND:                -0.652
REMARK SMILES Cc1ccc(C(C)C)cc1OCc1cc(-c2ccccc2)no1
REMARK SMILES IDX 11 1 10 2 2 3 3 4 4 5 9 6 5 7 1 8 6 9 7 10 8 11 12 12 13 13
REMARK SMILES IDX 14 14 23 15 15 16 22 17 16 18 17 19 21 20 18 21 20 22 19 23
REMARK H PARENT
ROOT
ATOM      1  O   UNL     1       8.624 -26.165  19.878  1.00  0.00    -0.485 OA
ENDROOT
BRANCH   1   2
ATOM      2  C   UNL     1       7.577 -25.288  20.002  1.00  0.00     0.123 A 
ATOM      3  C   UNL     1       6.428 -25.602  19.257  1.00  0.00    -0.009 A 
ATOM      4  C   UNL     1       5.306 -24.768  19.341  1.00  0.00     0.007 A 
ATOM      5  C   UNL     1       5.318 -23.640  20.163  1.00  0.00     0.004 A 
ATOM      6  C   UNL     1       7.575 -24.162  20.834  1.00  0.00     0.050 A 
ATOM      7  C   UNL     1       6.450 -23.325  20.923  1.00  0.00    -0.042 A 
ATOM      8  C   UNL     1       6.391 -26.816  18.371  1.00  0.00     0.048 C 
BRANCH   7   9
ATOM      9  C   UNL     1       6.436 -22.104  21.827  1.00  0.00     0.013 C 
ATOM     10  C   UNL     1       7.677 -21.232  21.611  1.00  0.00     0.012 C 
ATOM     11  C   UNL     1       5.156 -21.285  21.650  1.00  0.00     0.012 C 
ENDBRANCH   7   9
ENDBRANCH   1   2
BRANCH   1  12
ATOM     12  C   UNL     1       9.401 -26.464  21.042  1.00  0.00     0.307 C 
BRANCH  12  13
ATOM     13  C   UNL     1       9.003 -27.789  21.565  1.00  0.00     0.174 A 
ATOM     14  C   UNL     1       7.855 -28.542  21.539  1.00  0.00     0.081 A 
ATOM     15  O   UNL     1       9.958 -28.472  22.248  1.00  0.00    -0.357 OA
ATOM     16  C   UNL     1       8.167 -29.725  22.261  1.00  0.00     0.114 A 
ATOM     17  N   UNL     1       9.444 -29.675  22.681  1.00  0.00    -0.079 NA
BRANCH  16  18
ATOM     18  C   UNL     1       7.302 -30.873  22.552  1.00  0.00     0.004 A 
ATOM     19  C   UNL     1       6.979 -31.206  23.879  1.00  0.00     0.010 A 
ATOM     20  C   UNL     1       6.773 -31.664  21.521  1.00  0.00     0.010 A 
ATOM     21  C   UNL     1       6.156 -32.299  24.165  1.00  0.00     0.001 A 
ATOM     22  C   UNL     1       5.950 -32.757  21.808  1.00  0.00     0.001 A 
ATOM     23  C   UNL     1       5.643 -33.075  23.129  1.00  0.00     0.000 A 
ENDBRANCH  16  18
ENDBRANCH  12  13
ENDBRANCH   1  12
TORSDOF 5
ENDMDL
MODEL 7
REMARK VINA RESULT:    -6.630      3.061      3.857
REMARK INTER + INTRA:          -9.219
REMARK INTER:                  -8.578
REMARK INTRA:                  -0.641
REMARK UNBOUND:                -0.652
REMARK SMILES Cc1ccc(C(C)C)cc1OCc1cc(-c2ccccc2)no1
REMARK SMILES IDX 11 1 10 2 2 3 3 4 4 5 9 6 5 7 1 8 6 9 7 10 8 11 12 12 13 13
REMARK SMILES IDX 14 14 23 15 15 16 22 17 16 18 17 19 21 20 18 21 20 22 19 23
REMARK H PARENT
ROOT
ATOM      1  O   UNL     1      11.276 -27.361  24.668  1.00  0.00    -0.485 OA
ENDROOT
BRANCH   1   2
ATOM      2  C   UNL     1      12.067 -26.427  24.049  1.00  0.00     0.123 A 
ATOM      3  C   UNL     1      13.239 -26.921  23.452  1.00  0.00    -0.009 A 
ATOM      4  C   UNL     1      14.095 -26.035  22.783  1.00  0.00     0.007 A 
ATOM      5  C   UNL     1      13.786 -24.677  22.699  1.00  0.00     0.004 A 
ATOM      6  C   UNL     1      11.760 -25.065  23.948  1.00  0.00     0.050 A 
ATOM      7  C   UNL     1      12.615 -24.174  23.275  1.00  0.00    -0.042 A 
ATOM      8  C   UNL     1      13.587 -28.382  23.525  1.00  0.00     0.048 C 
BRANCH   7   9
ATOM      9  C   UNL     1      12.288 -22.696  23.155  1.00  0.00     0.013 C 
ATOM     10  C   UNL     1      11.044 -22.328  23.969  1.00  0.00     0.012 C 
ATOM     11  C   UNL     1      13.478 -21.821  23.551  1.00  0.00     0.012 C 
ENDBRANCH   7   9
ENDBRANCH   1   2
BRANCH   1  12
ATOM     12  C   UNL     1       9.864 -27.136  24.706  1.00  0.00     0.307 C 
BRANCH  12  13
ATOM     13  C   UNL     1       9.166 -28.320  24.159  1.00  0.00     0.174 A 
ATOM     14  C   UNL     1       8.117 -29.106  24.568  1.00  0.00     0.081 A 
ATOM     15  O   UNL     1       9.631 -28.792  22.975  1.00  0.00    -0.357 OA
ATOM     16  C   UNL     1       7.979 -30.098  23.560  1.00  0.00     0.114 A 
ATOM     17  N   UNL     1       8.897 -29.895  22.597  1.00  0.00    -0.079 NA
BRANCH  16  18
ATOM     18  C   UNL     1       7.018 -31.204  23.491  1.00  0.00     0.004 A 
ATOM     19  C   UNL     1       6.777 -31.867  22.276  1.00  0.00     0.010 A 
ATOM     20  C   UNL     1       6.320 -31.630  24.631  1.00  0.00     0.010 A 
ATOM     21  C   UNL     1       5.863 -32.921  22.203  1.00  0.00     0.001 A 
ATOM     22  C   UNL     1       5.404 -32.685  24.557  1.00  0.00     0.001 A 
ATOM     23  C   UNL     1       5.176 -33.329  23.343  1.00  0.00     0.000 A 
ENDBRANCH  16  18
ENDBRANCH  12  13
ENDBRANCH   1  12
TORSDOF 5
ENDMDL
MODEL 8
REMARK VINA RESULT:    -6.619      4.108      7.844
REMARK INTER + INTRA:          -9.205
REMARK INTER:                  -8.582
REMARK INTRA:                  -0.623
REMARK UNBOUND:                -0.652
REMARK SMILES Cc1ccc(C(C)C)cc1OCc1cc(-c2ccccc2)no1
REMARK SMILES IDX 11 1 10 2 2 3 3 4 4 5 9 6 5 7 1 8 6 9 7 10 8 11 12 12 13 13
REMARK SMILES IDX 14 14 23 15 15 16 22 17 16 18 17 19 21 20 18 21 20 22 19 23
REMARK H PARENT
ROOT
ATOM      1  O   UNL     1       7.916 -30.761  22.262  1.00  0.00    -0.485 OA
ENDROOT
BRANCH   1   2
ATOM      2  C   UNL     1       7.124 -31.482  23.119  1.00  0.00     0.123 A 
ATOM      3  C   UNL     1       6.255 -32.405  22.513  1.00  0.00    -0.009 A 
ATOM      4  C   UNL     1       5.424 -33.196  23.318  1.00  0.00     0.007 A 
ATOM      5  C   UNL     1       5.463 -33.081  24.708  1.00  0.00     0.004 A 
ATOM      6  C   UNL     1       7.165 -31.384  24.515  1.00  0.00     0.050 A 
ATOM      7  C   UNL     1       6.335 -32.178  25.325  1.00  0.00    -0.042 A 
ATOM      8  C   UNL     1       6.203 -32.550  21.018  1.00  0.00     0.048 C 
BRANCH   7   9
ATOM      9  C   UNL     1       6.375 -32.082  26.840  1.00  0.00     0.013 C 
ATOM     10  C   UNL     1       5.606 -33.233  27.496  1.00  0.00     0.012 C 
ATOM     11  C   UNL     1       7.811 -32.016  27.364  1.00  0.00     0.012 C 
ENDBRANCH   7   9
ENDBRANCH   1   2
BRANCH   1  12
ATOM     12  C   UNL     1       7.599 -29.383  22.044  1.00  0.00     0.307 C 
BRANCH  12  13
ATOM     13  C   UNL     1       8.816 -28.565  22.242  1.00  0.00     0.174 A 
ATOM     14  C   UNL     1       9.104 -27.223  22.203  1.00  0.00     0.081 A 
ATOM     15  O   UNL     1       9.953 -29.248  22.529  1.00  0.00    -0.357 OA
ATOM     16  C   UNL     1      10.495 -27.131  22.473  1.00  0.00     0.114 A 
ATOM     17  N   UNL     1      10.998 -28.363  22.675  1.00  0.00    -0.079 NA
BRANCH  16  18
ATOM     18  C   UNL     1      11.335 -25.931  22.544  1.00  0.00     0.004 A 
ATOM     19  C   UNL     1      10.835 -24.684  22.134  1.00  0.00     0.010 A 
ATOM     20  C   UNL     1      12.653 -25.995  23.023  1.00  0.00     0.010 A 
ATOM     21  C   UNL     1      11.630 -23.536  22.198  1.00  0.00     0.001 A 
ATOM     22  C   UNL     1      13.448 -24.846  23.086  1.00  0.00     0.001 A 
ATOM     23  C   UNL     1      12.937 -23.618  22.672  1.00  0.00     0.000 A 
ENDBRANCH  16  18
ENDBRANCH  12  13
ENDBRANCH   1  12
TORSDOF 5
ENDMDL
