MODEL 1
REMARK VINA RESULT:    -5.069      0.000      0.000
REMARK INTER + INTRA:          -6.657
REMARK INTER:                  -6.106
REMARK INTRA:                  -0.551
REMARK UNBOUND:                -0.551
REMARK SMILES CC(=O)Oc1ccccc1C(=O)O
REMARK SMILES IDX 5 1 6 2 7 3 8 4 9 5 10 6 4 7 2 8 3 9 1 10 11 11 12 12 13 13
REMARK H PARENT 13 14
ROOT
ATOM      1  C   UNL     1       6.088 -26.037  20.252  1.00  0.00     0.145 A 
ATOM      2  C   UNL     1       6.443 -26.180  21.597  1.00  0.00     0.048 A 
ATOM      3  C   UNL     1       7.784 -26.334  21.944  1.00  0.00     0.004 A 
ATOM      4  C   UNL     1       8.762 -26.358  20.949  1.00  0.00     0.001 A 
ATOM      5  C   UNL     1       8.401 -26.234  19.604  1.00  0.00     0.019 A 
ATOM      6  C   UNL     1       7.056 -26.079  19.237  1.00  0.00     0.102 A 
ENDROOT
BRANCH   1   7
ATOM      7  O   UNL     1       4.724 -25.916  19.971  1.00  0.00    -0.426 OA
BRANCH   7   8
ATOM      8  C   UNL     1       4.255 -24.619  20.151  1.00  0.00     0.308 C 
ATOM      9  O   UNL     1       4.670 -23.608  19.600  1.00  0.00    -0.252 OA
ATOM     10  C   UNL     1       3.152 -24.639  21.166  1.00  0.00     0.139 C 
ENDBRANCH   7   8
ENDBRANCH   1   7
BRANCH   6  11
ATOM     11  C   UNL     1       6.662 -25.976  17.807  1.00  0.00     0.339 C 
ATOM     12  O   UNL     1       6.966 -25.097  17.023  1.00  0.00    -0.246 OA
BRANCH  11  13
ATOM     13  O   UNL     1       5.882 -27.001  17.412  1.00  0.00    -0.478 OA
ATOM     14  H   UNL     1       5.586 -27.407  18.253  1.00  0.00     0.297 HD
ENDBRANCH  11  13
ENDBRANCH   6  11
TORSDOF 4
ENDMDL
MODEL 2
REMARK VINA RESULT:    -5.030      1.561      3.452
REMARK INTER + INTRA:          -6.610
REMARK INTER:                  -6.130
REMARK INTRA:                  -0.480
REMARK UNBOUND:                -0.551
REMARK SMILES CC(=O)Oc1ccccc1C(=O)O
REMARK SMILES IDX 5 1 6 2 7 3 8 4 9 5 10 6 4 7 2 8 3 9 1 10 11 11 12 12 13 13
REMARK H PARENT 13 14
ROOT
ATOM      1  C   UNL     1       6.267 -26.451  20.337  1.00  0.00     0.145 A 
ATOM      2  C   UNL     1       5.777 -26.274  21.636  1.00  0.00     0.048 A 
ATOM      3  C   UNL     1       4.675 -25.450  21.852  1.00  0.00     0.004 A 
ATOM      4  C   UNL     1       4.074 -24.795  20.776  1.00  0.00     0.001 A 
ATOM      5  C   UNL     1       4.578 -24.959  19.481  1.00  0.00     0.019 A 
ATOM      6  C   UNL     1       5.688 -25.786  19.247  1.00  0.00     0.102 A 
ENDROOT
BRANCH   1   7
ATOM      7  O   UNL     1       7.392 -27.268  20.195  1.00  0.00    -0.426 OA
BRANCH   7   8
ATOM      8  C   UNL     1       8.573 -26.613  20.526  1.00  0.00     0.308 C 
ATOM      9  O   UNL     1       8.926 -25.504  20.146  1.00  0.00    -0.252 OA
ATOM     10  C   UNL     1       9.384 -27.500  21.423  1.00  0.00     0.139 C 
ENDBRANCH   7   8
ENDBRANCH   1   7
BRANCH   6  11
ATOM     11  C   UNL     1       6.247 -25.941  17.878  1.00  0.00     0.339 C 
ATOM     12  O   UNL     1       6.903 -25.128  17.256  1.00  0.00    -0.246 OA
BRANCH  11  13
ATOM     13  O   UNL     1       5.948 -27.137  17.332  1.00  0.00    -0.478 OA
ATOM     14  H   UNL     1       4.969 -27.145  17.309  1.00  0.00     0.297 HD
ENDBRANCH  11  13
ENDBRANCH   6  11
TORSDOF 4
ENDMDL
MODEL 3
REMARK VINA RESULT:    -4.958      6.468      7.861
REMARK INTER + INTRA:          -6.524
REMARK INTER:                  -5.810
REMARK INTRA:                  -0.714
REMARK UNBOUND:                -0.551
REMARK SMILES CC(=O)Oc1ccccc1C(=O)O
REMARK SMILES IDX 5 1 6 2 7 3 8 4 9 5 10 6 4 7 2 8 3 9 1 10 11 11 12 12 13 13
REMARK H PARENT 13 14
ROOT
ATOM      1  C   UNL     1      11.823 -26.298  24.101  1.00  0.00     0.145 A 
ATOM      2  C   UNL     1      11.060 -25.144  23.892  1.00  0.00     0.048 A 
ATOM      3  C   UNL     1      11.642 -24.031  23.287  1.00  0.00     0.004 A 
ATOM      4  C   UNL     1      12.983 -24.069  22.905  1.00  0.00     0.001 A 
ATOM      5  C   UNL     1      13.748 -25.217  23.132  1.00  0.00     0.019 A 
ATOM      6  C   UNL     1      13.178 -26.346  23.740  1.00  0.00     0.102 A 
ENDROOT
BRANCH   1   7
ATOM      7  O   UNL     1      11.187 -27.366  24.737  1.00  0.00    -0.426 OA
BRANCH   7   8
ATOM      8  C   UNL     1      10.352 -28.077  23.883  1.00  0.00     0.308 C 
ATOM      9  O   UNL     1      10.664 -28.596  22.819  1.00  0.00    -0.252 OA
ATOM     10  C   UNL     1       8.968 -28.094  24.460  1.00  0.00     0.139 C 
ENDBRANCH   7   8
ENDBRANCH   1   7
BRANCH   6  11
ATOM     11  C   UNL     1      13.993 -27.560  24.011  1.00  0.00     0.339 C 
ATOM     12  O   UNL     1      14.874 -27.683  24.840  1.00  0.00    -0.246 OA
BRANCH  11  13
ATOM     13  O   UNL     1      13.664 -28.592  23.209  1.00  0.00    -0.478 OA
ATOM     14  H   UNL     1      12.726 -28.421  22.982  1.00  0.00     0.297 HD
ENDBRANCH  11  13
ENDBRANCH   6  11
TORSDOF 4
ENDMDL
MODEL 4
REMARK VINA RESULT:    -4.701      5.057      6.245
REMARK INTER + INTRA:          -6.213
REMARK INTER:                  -5.506
REMARK INTRA:                  -0.708
REMARK UNBOUND:                -0.551
REMARK SMILES CC(=O)Oc1ccccc1C(=O)O
REMARK SMILES IDX 5 1 6 2 7 3 8 4 9 5 10 6 4 7 2 8 3 9 1 10 11 11 12 12 13 13
REMARK H PARENT 13 14
ROOT
ATOM      1  C   UNL     1      11.736 -25.860  22.761  1.00  0.00     0.145 A 
ATOM      2  C   UNL     1      12.925 -25.179  23.045  1.00  0.00     0.048 A 
ATOM      3  C   UNL     1      14.149 -25.792  22.787  1.00  0.00     0.004 A 
ATOM      4  C   UNL     1      14.184 -27.082  22.259  1.00  0.00     0.001 A 
ATOM      5  C   UNL     1      12.994 -27.768  21.994  1.00  0.00     0.019 A 
ATOM      6  C   UNL     1      11.752 -27.165  22.249  1.00  0.00     0.102 A 
ENDROOT
BRANCH   1   7
ATOM      7  O   UNL     1      10.543 -25.200  23.072  1.00  0.00    -0.426 OA
BRANCH   7   8
ATOM      8  C   UNL     1      10.225 -24.210  22.148  1.00  0.00     0.308 C 
ATOM      9  O   UNL     1      10.027 -24.364  20.950  1.00  0.00    -0.252 OA
ATOM     10  C   UNL     1      10.182 -22.886  22.852  1.00  0.00     0.139 C 
ENDBRANCH   7   8
ENDBRANCH   1   7
BRANCH   6  11
ATOM     11  C   UNL     1      10.483 -27.898  21.997  1.00  0.00     0.339 C 
ATOM     12  O   UNL     1      10.051 -28.853  22.615  1.00  0.00    -0.246 OA
BRANCH  11  13
ATOM     13  O   UNL     1       9.795 -27.395  20.953  1.00  0.00    -0.478 OA
ATOM     14  H   UNL     1       9.478 -28.191  20.478  1.00  0.00     0.297 HD
ENDBRANCH  11  13
ENDBRANCH   6  11
TORSDOF 4
ENDMDL
MODEL 5
REMARK VINA RESULT:    -4.648      5.477      7.455
REMARK INTER + INTRA:          -6.150
REMARK INTER:                  -5.581
REMARK INTRA:                  -0.569
REMARK UNBOUND:                -0.551
REMARK SMILES CC(=O)Oc1ccccc1C(=O)O
REMARK SMILES IDX 5 1 6 2 7 3 8 4 9 5 10 6 4 7 2 8 3 9 1 10 11 11 12 12 13 13
REMARK H PARENT 13 14
ROOT
ATOM      1  C   UNL     1      12.220 -26.296  22.911  1.00  0.00     0.145 A 
ATOM      2  C   UNL     1      13.166 -25.306  23.198  1.00  0.00     0.048 A 
ATOM      3  C   UNL     1      12.922 -23.987  22.818  1.00  0.00     0.004 A 
ATOM      4  C   UNL     1      11.744 -23.664  22.144  1.00  0.00     0.001 A 
ATOM      5  C   UNL     1      10.809 -24.659  21.843  1.00  0.00     0.019 A 
ATOM      6  C   UNL     1      11.039 -25.992  22.218  1.00  0.00     0.102 A 
ENDROOT
BRANCH   1   7
ATOM      7  O   UNL     1      12.539 -27.602  23.293  1.00  0.00    -0.426 OA
BRANCH   7   8
ATOM      8  C   UNL     1      13.618 -28.118  22.583  1.00  0.00     0.308 C 
ATOM      9  O   UNL     1      13.796 -28.050  21.374  1.00  0.00    -0.252 OA
ATOM     10  C   UNL     1      14.542 -28.811  23.539  1.00  0.00     0.139 C 
ENDBRANCH   7   8
ENDBRANCH   1   7
BRANCH   6  11
ATOM     11  C   UNL     1      10.063 -27.060  21.875  1.00  0.00     0.339 C 
ATOM     12  O   UNL     1       8.859 -27.037  22.045  1.00  0.00    -0.246 OA
BRANCH  11  13
ATOM     13  O   UNL     1      10.652 -28.139  21.324  1.00  0.00    -0.478 OA
ATOM     14  H   UNL     1      10.757 -27.892  20.382  1.00  0.00     0.297 HD
ENDBRANCH  11  13
ENDBRANCH   6  11
TORSDOF 4
ENDMDL
MODEL 6
REMARK VINA RESULT:    -4.578      5.504      6.801
REMARK INTER + INTRA:          -6.066
REMARK INTER:                  -5.344
REMARK INTRA:                  -0.723
REMARK UNBOUND:                -0.551
REMARK SMILES CC(=O)Oc1ccccc1C(=O)O
REMARK SMILES IDX 5 1 6 2 7 3 8 4 9 5 10 6 4 7 2 8 3 9 1 10 11 11 12 12 13 13
REMARK H PARENT 13 14
ROOT
ATOM      1  C   UNL     1      11.759 -25.237  23.957  1.00  0.00     0.145 A 
ATOM      2  C   UNL     1      11.999 -26.445  24.621  1.00  0.00     0.048 A 
ATOM      3  C   UNL     1      13.159 -27.166  24.345  1.00  0.00     0.004 A 
ATOM      4  C   UNL     1      14.067 -26.687  23.400  1.00  0.00     0.001 A 
ATOM      5  C   UNL     1      13.815 -25.489  22.724  1.00  0.00     0.019 A 
ATOM      6  C   UNL     1      12.651 -24.751  22.990  1.00  0.00     0.102 A 
ENDROOT
BRANCH   1   7
ATOM      7  O   UNL     1      10.563 -24.579  24.260  1.00  0.00    -0.426 OA
BRANCH   7   8
ATOM      8  C   UNL     1       9.447 -25.245  23.765  1.00  0.00     0.308 C 
ATOM      9  O   UNL     1       9.243 -25.565  22.601  1.00  0.00    -0.252 OA
ATOM     10  C   UNL     1       8.493 -25.498  24.894  1.00  0.00     0.139 C 
ENDBRANCH   7   8
ENDBRANCH   1   7
BRANCH   6  11
ATOM     11  C   UNL     1      12.362 -23.491  22.255  1.00  0.00     0.339 C 
ATOM     12  O   UNL     1      12.942 -22.428  22.363  1.00  0.00    -0.246 OA
BRANCH  11  13
ATOM     13  O   UNL     1      11.329 -23.619  21.399  1.00  0.00    -0.478 OA
ATOM     14  H   UNL     1      10.593 -23.928  21.966  1.00  0.00     0.297 HD
ENDBRANCH  11  13
ENDBRANCH   6  11
TORSDOF 4
ENDMDL
MODEL 7
REMARK VINA RESULT:    -4.543      7.423      8.595
REMARK INTER + INTRA:          -6.023
REMARK INTER:                  -5.468
REMARK INTRA:                  -0.555
REMARK UNBOUND:                -0.551
REMARK SMILES CC(=O)Oc1ccccc1C(=O)O
REMARK SMILES IDX 5 1 6 2 7 3 8 4 9 5 10 6 4 7 2 8 3 9 1 10 11 11 12 12 13 13
REMARK H PARENT 13 14
ROOT
ATOM      1  C   UNL     1       6.580 -31.599  24.055  1.00  0.00     0.145 A 
ATOM      2  C   UNL     1       7.740 -31.076  23.473  1.00  0.00     0.048 A 
ATOM      3  C   UNL     1       8.147 -31.530  22.220  1.00  0.00     0.004 A 
ATOM      4  C   UNL     1       7.406 -32.510  21.559  1.00  0.00     0.001 A 
ATOM      5  C   UNL     1       6.257 -33.043  22.152  1.00  0.00     0.019 A 
ATOM      6  C   UNL     1       5.833 -32.598  23.414  1.00  0.00     0.102 A 
ENDROOT
BRANCH   1   7
ATOM      7  O   UNL     1       6.243 -31.122  25.325  1.00  0.00    -0.426 OA
BRANCH   7   8
ATOM      8  C   UNL     1       7.131 -31.547  26.308  1.00  0.00     0.308 C 
ATOM      9  O   UNL     1       7.492 -32.697  26.519  1.00  0.00    -0.252 OA
ATOM     10  C   UNL     1       7.573 -30.358  27.109  1.00  0.00     0.139 C 
ENDBRANCH   7   8
ENDBRANCH   1   7
BRANCH   6  11
ATOM     11  C   UNL     1       4.630 -33.182  24.064  1.00  0.00     0.339 C 
ATOM     12  O   UNL     1       4.452 -34.345  24.371  1.00  0.00    -0.246 OA
BRANCH  11  13
ATOM     13  O   UNL     1       3.675 -32.261  24.303  1.00  0.00    -0.478 OA
ATOM     14  H   UNL     1       3.321 -32.515  25.181  1.00  0.00     0.297 HD
ENDBRANCH  11  13
ENDBRANCH   6  11
TORSDOF 4
ENDMDL
MODEL 8
REMARK VINA RESULT:    -4.533      6.449      8.250
REMARK INTER + INTRA:          -6.011
REMARK INTER:                  -5.650
REMARK INTRA:                  -0.361
REMARK UNBOUND:                -0.551
REMARK SMILES CC(=O)Oc1ccccc1C(=O)O
REMARK SMILES IDX 5 1 6 2 7 3 8 4 9 5 10 6 4 7 2 8 3 9 1 10 11 11 12 12 13 13
REMARK H PARENT 13 14
ROOT
ATOM      1  C   UNL     1      12.521 -26.123  24.019  1.00  0.00     0.145 A 
ATOM      2  C   UNL     1      11.818 -27.055  24.790  1.00  0.00     0.048 A 
ATOM      3  C   UNL     1      10.449 -26.891  24.992  1.00  0.00     0.004 A 
ATOM      4  C   UNL     1       9.790 -25.793  24.437  1.00  0.00     0.001 A 
ATOM      5  C   UNL     1      10.499 -24.853  23.682  1.00  0.00     0.019 A 
ATOM      6  C   UNL     1      11.879 -25.004  23.469  1.00  0.00     0.102 A 
ENDROOT
BRANCH   1   7
ATOM      7  O   UNL     1      13.896 -26.331  23.880  1.00  0.00    -0.426 OA
BRANCH   7   8
ATOM      8  C   UNL     1      14.199 -27.245  22.877  1.00  0.00     0.308 C 
ATOM      9  O   UNL     1      14.218 -27.029  21.672  1.00  0.00    -0.252 OA
ATOM     10  C   UNL     1      14.483 -28.577  23.504  1.00  0.00     0.139 C 
ENDBRANCH   7   8
ENDBRANCH   1   7
BRANCH   6  11
ATOM     11  C   UNL     1      12.645 -23.993  22.693  1.00  0.00     0.339 C 
ATOM     12  O   UNL     1      12.304 -23.448  21.660  1.00  0.00    -0.246 OA
BRANCH  11  13
ATOM     13  O   UNL     1      13.835 -23.705  23.254  1.00  0.00    -0.478 OA
ATOM     14  H   UNL     1      13.846 -22.726  23.290  1.00  0.00     0.297 HD
ENDBRANCH  11  13
ENDBRANCH   6  11
TORSDOF 4
ENDMDL
