MODEL 1
REMARK VINA RESULT:    -7.067      0.000      0.000
REMARK INTER + INTRA:          -9.806
REMARK INTER:                  -9.133
REMARK INTRA:                  -0.674
REMARK UNBOUND:                -0.674
REMARK SMILES Cc1ccc(C(C)C)cc1OCc1cc(-c2ccccc2)no1
REMARK SMILES IDX 11 1 10 2 2 3 3 4 4 5 9 6 5 7 1 8 6 9 7 10 8 11 12 12 13 13
REMARK SMILES IDX 14 14 23 15 15 16 22 17 16 18 17 19 21 20 18 21 20 22 19 23
REMARK H PARENT
ROOT
ATOM      1  O   UNL     1      11.866 -27.389  24.898  1.00  0.00    -0.485 OA
ENDROOT
BRANCH   1   2
ATOM      2  C   UNL     1      12.464 -26.420  24.133  1.00  0.00     0.123 A 
ATOM      3  C   UNL     1      13.565 -26.842  23.369  1.00  0.00    -0.009 A 
ATOM      4  C   UNL     1      14.222 -25.918  22.546  1.00  0.00     0.007 A 
ATOM      5  C   UNL     1      13.786 -24.594  22.473  1.00  0.00     0.004 A 
ATOM      6  C   UNL     1      12.026 -25.094  24.044  1.00  0.00     0.050 A 
ATOM      7  C   UNL     1      12.681 -24.166  23.216  1.00  0.00    -0.042 A 
ATOM      8  C   UNL     1      14.046 -28.264  23.428  1.00  0.00     0.048 C 
BRANCH   7   9
ATOM      9  C   UNL     1      12.211 -22.725  23.107  1.00  0.00     0.013 C 
ATOM     10  C   UNL     1      10.933 -22.490  23.918  1.00  0.00     0.012 C 
ATOM     11  C   UNL     1      13.308 -21.741  23.518  1.00  0.00     0.012 C 
ENDBRANCH   7   9
ENDBRANCH   1   2
BRANCH   1  12
ATOM     12  C   UNL     1      10.438 -27.393  24.994  1.00  0.00     0.307 C 
BRANCH  12  13
ATOM     13  C   UNL     1       9.859 -27.507  23.638  1.00  0.00     0.174 A 
ATOM     14  C   UNL     1       8.983 -26.761  22.888  1.00  0.00     0.081 A 
ATOM     15  O   UNL     1      10.243 -28.588  22.914  1.00  0.00    -0.357 OA
ATOM     16  C   UNL     1       8.848 -27.465  21.662  1.00  0.00     0.114 A 
ATOM     17  N   UNL     1       9.619 -28.567  21.686  1.00  0.00    -0.079 NA
BRANCH  16  18
ATOM     18  C   UNL     1       8.025 -27.122  20.497  1.00  0.00     0.004 A 
ATOM     19  C   UNL     1       8.516 -26.257  19.505  1.00  0.00     0.010 A 
ATOM     20  C   UNL     1       6.733 -27.648  20.341  1.00  0.00     0.010 A 
ATOM     21  C   UNL     1       7.737 -25.925  18.393  1.00  0.00     0.001 A 
ATOM     22  C   UNL     1       5.954 -27.315  19.228  1.00  0.00     0.001 A 
ATOM     23  C   UNL     1       6.456 -26.453  18.255  1.00  0.00     0.000 A 
ENDBRANCH  16  18
ENDBRANCH  12  13
ENDBRANCH   1  12
TORSDOF 5
ENDMDL
MODEL 2
REMARK VINA RESULT:    -6.742      2.999      4.686
REMARK INTER + INTRA:          -9.387
REMARK INTER:                  -9.030
REMARK INTRA:                  -0.357
REMARK UNBOUND:                -0.674
REMARK SMILES Cc1ccc(C(C)C)cc1OCc1cc(-c2ccccc2)no1
REMARK SMILES IDX 11 1 10 2 2 3 3 4 4 5 9 6 5 7 1 8 6 9 7 10 8 11 12 12 13 13
REMARK SMILES IDX 14 14 23 15 15 16 22 17 16 18 17 19 21 20 18 21 20 22 19 23
REMARK H PARENT
ROOT
ATOM      1  O   UNL     1       9.404 -25.544  21.966  1.00  0.00    -0.485 OA
ENDROOT
BRANCH   1   2
ATOM      2  C   UNL     1      10.692 -25.183  22.269  1.00  0.00     0.123 A 
ATOM      3  C   UNL     1      10.888 -23.826  22.573  1.00  0.00    -0.009 A 
ATOM      4  C   UNL     1      12.172 -23.377  22.912  1.00  0.00     0.007 A 
ATOM      5  C   UNL     1      13.247 -24.266  22.958  1.00  0.00     0.004 A 
ATOM      6  C   UNL     1      11.774 -26.069  22.330  1.00  0.00     0.050 A 
ATOM      7  C   UNL     1      13.062 -25.623  22.672  1.00  0.00    -0.042 A 
ATOM      8  C   UNL     1       9.743 -22.853  22.537  1.00  0.00     0.048 C 
BRANCH   7   9
ATOM      9  C   UNL     1      14.242 -26.577  22.747  1.00  0.00     0.013 C 
ATOM     10  C   UNL     1      14.261 -27.342  24.074  1.00  0.00     0.012 C 
ATOM     11  C   UNL     1      14.264 -27.542  21.560  1.00  0.00     0.012 C 
ENDBRANCH   7   9
ENDBRANCH   1   2
BRANCH   1  12
ATOM     12  C   UNL     1       9.192 -26.459  20.887  1.00  0.00     0.307 C 
BRANCH  12  13
ATOM     13  C   UNL     1       8.825 -27.783  21.435  1.00  0.00     0.174 A 
ATOM     14  C   UNL     1       7.665 -28.513  21.524  1.00  0.00     0.081 A 
ATOM     15  O   UNL     1       9.832 -28.493  22.004  1.00  0.00    -0.357 OA
ATOM     16  C   UNL     1       8.027 -29.711  22.195  1.00  0.00     0.114 A 
ATOM     17  N   UNL     1       9.342 -29.691  22.477  1.00  0.00    -0.079 NA
BRANCH  16  18
ATOM     18  C   UNL     1       7.174 -30.845  22.565  1.00  0.00     0.004 A 
ATOM     19  C   UNL     1       6.573 -31.639  21.574  1.00  0.00     0.010 A 
ATOM     20  C   UNL     1       6.938 -31.168  23.909  1.00  0.00     0.010 A 
ATOM     21  C   UNL     1       5.758 -32.722  21.918  1.00  0.00     0.001 A 
ATOM     22  C   UNL     1       6.122 -32.251  24.253  1.00  0.00     0.001 A 
ATOM     23  C   UNL     1       5.532 -33.026  23.258  1.00  0.00     0.000 A 
ENDBRANCH  16  18
ENDBRANCH  12  13
ENDBRANCH   1  12
TORSDOF 5
ENDMDL
MODEL 3
REMARK VINA RESULT:    -6.727      2.842      3.511
REMARK INTER + INTRA:          -9.367
REMARK INTER:                  -8.705
REMARK INTRA:                  -0.662
REMARK UNBOUND:                -0.674
REMARK SMILES Cc1ccc(C(C)C)cc1OCc1cc(-c2ccccc2)no1
REMARK SMILES IDX 11 1 10 2 2 3 3 4 4 5 9 6 5 7 1 8 6 9 7 10 8 11 12 12 13 13
REMARK SMILES IDX 14 14 23 15 15 16 22 17 16 18 17 19 21 20 18 21 20 22 19 23
REMARK H PARENT
ROOT
ATOM      1  O   UNL     1      11.378 -27.151  24.829  1.00  0.00    -0.485 OA
ENDROOT
BRANCH   1   2
ATOM      2  C   UNL     1      12.149 -26.248  24.143  1.00  0.00     0.123 A 
ATOM      3  C   UNL     1      13.290 -26.775  23.515  1.00  0.00    -0.009 A 
ATOM      4  C   UNL     1      14.123 -25.923  22.778  1.00  0.00     0.007 A 
ATOM      5  C   UNL     1      13.823 -24.566  22.657  1.00  0.00     0.004 A 
ATOM      6  C   UNL     1      11.849 -24.888  24.005  1.00  0.00     0.050 A 
ATOM      7  C   UNL     1      12.682 -24.031  23.264  1.00  0.00    -0.042 A 
ATOM      8  C   UNL     1      13.628 -28.236  23.628  1.00  0.00     0.048 C 
BRANCH   7   9
ATOM      9  C   UNL     1      12.363 -22.555  23.103  1.00  0.00     0.013 C 
ATOM     10  C   UNL     1      11.083 -22.172  23.853  1.00  0.00     0.012 C 
ATOM     11  C   UNL     1      13.535 -21.673  23.537  1.00  0.00     0.012 C 
ENDBRANCH   7   9
ENDBRANCH   1   2
BRANCH   1  12
ATOM     12  C   UNL     1       9.956 -26.994  24.793  1.00  0.00     0.307 C 
BRANCH  12  13
ATOM     13  C   UNL     1       9.355 -28.150  24.093  1.00  0.00     0.174 A 
ATOM     14  C   UNL     1       8.357 -29.049  24.377  1.00  0.00     0.081 A 
ATOM     15  O   UNL     1       9.876 -28.445  22.875  1.00  0.00    -0.357 OA
ATOM     16  C   UNL     1       8.310 -29.922  23.257  1.00  0.00     0.114 A 
ATOM     17  N   UNL     1       9.230 -29.544  22.351  1.00  0.00    -0.079 NA
BRANCH  16  18
ATOM     18  C   UNL     1       7.433 -31.075  23.033  1.00  0.00     0.004 A 
ATOM     19  C   UNL     1       7.438 -31.749  21.800  1.00  0.00     0.010 A 
ATOM     20  C   UNL     1       6.570 -31.538  24.039  1.00  0.00     0.010 A 
ATOM     21  C   UNL     1       6.604 -32.848  21.579  1.00  0.00     0.001 A 
ATOM     22  C   UNL     1       5.736 -32.638  23.817  1.00  0.00     0.001 A 
ATOM     23  C   UNL     1       5.752 -33.291  22.587  1.00  0.00     0.000 A 
ENDBRANCH  16  18
ENDBRANCH  12  13
ENDBRANCH   1  12
TORSDOF 5
ENDMDL
MODEL 4
REMARK VINA RESULT:    -6.713      3.253      4.766
REMARK INTER + INTRA:          -9.349
REMARK INTER:                  -8.622
REMARK INTRA:                  -0.727
REMARK UNBOUND:                -0.674
REMARK SMILES Cc1ccc(C(C)C)cc1OCc1cc(-c2ccccc2)no1
REMARK SMILES IDX 11 1 10 2 2 3 3 4 4 5 9 6 5 7 1 8 6 9 7 10 8 11 12 12 13 13
REMARK SMILES IDX 14 14 23 15 15 16 22 17 16 18 17 19 21 20 18 21 20 22 19 23
REMARK H PARENT
ROOT
ATOM      1  O   UNL     1       9.601 -26.134  24.420  1.00  0.00    -0.485 OA
ENDROOT
BRANCH   1   2
ATOM      2  C   UNL     1      10.847 -25.761  23.983  1.00  0.00     0.123 A 
ATOM      3  C   UNL     1      11.058 -24.378  23.855  1.00  0.00    -0.009 A 
ATOM      4  C   UNL     1      12.310 -23.911  23.431  1.00  0.00     0.007 A 
ATOM      5  C   UNL     1      13.343 -24.805  23.147  1.00  0.00     0.004 A 
ATOM      6  C   UNL     1      11.893 -26.649  23.709  1.00  0.00     0.050 A 
ATOM      7  C   UNL     1      13.150 -26.184  23.286  1.00  0.00    -0.042 A 
ATOM      8  C   UNL     1       9.961 -23.397  24.163  1.00  0.00     0.048 C 
BRANCH   7   9
ATOM      9  C   UNL     1      14.294 -27.139  22.990  1.00  0.00     0.013 C 
ATOM     10  C   UNL     1      14.478 -28.160  24.117  1.00  0.00     0.012 C 
ATOM     11  C   UNL     1      14.111 -27.840  21.643  1.00  0.00     0.012 C 
ENDBRANCH   7   9
ENDBRANCH   1   2
BRANCH   1  12
ATOM     12  C   UNL     1       9.512 -27.005  25.552  1.00  0.00     0.307 C 
BRANCH  12  13
ATOM     13  C   UNL     1       8.781 -28.232  25.167  1.00  0.00     0.174 A 
ATOM     14  C   UNL     1       8.671 -28.980  24.021  1.00  0.00     0.081 A 
ATOM     15  O   UNL     1       8.014 -28.797  26.134  1.00  0.00    -0.357 OA
ATOM     16  C   UNL     1       7.776 -30.034  24.347  1.00  0.00     0.114 A 
ATOM     17  N   UNL     1       7.389 -29.917  25.630  1.00  0.00    -0.079 NA
BRANCH  16  18
ATOM     18  C   UNL     1       7.295 -31.122  23.490  1.00  0.00     0.004 A 
ATOM     19  C   UNL     1       6.260 -31.969  23.924  1.00  0.00     0.010 A 
ATOM     20  C   UNL     1       7.848 -31.346  22.221  1.00  0.00     0.010 A 
ATOM     21  C   UNL     1       5.796 -33.009  23.113  1.00  0.00     0.001 A 
ATOM     22  C   UNL     1       7.384 -32.387  21.410  1.00  0.00     0.001 A 
ATOM     23  C   UNL     1       6.359 -33.218  21.857  1.00  0.00     0.000 A 
ENDBRANCH  16  18
ENDBRANCH  12  13
ENDBRANCH   1  12
TORSDOF 5
ENDMDL
MODEL 5
REMARK VINA RESULT:    -6.677      3.913      5.895
REMARK INTER + INTRA:          -9.303
REMARK INTER:                  -8.627
REMARK INTRA:                  -0.676
REMARK UNBOUND:                -0.674
REMARK SMILES Cc1ccc(C(C)C)cc1OCc1cc(-c2ccccc2)no1
REMARK SMILES IDX 11 1 10 2 2 3 3 4 4 5 9 6 5 7 1 8 6 9 7 10 8 11 12 12 13 13
REMARK SMILES IDX 14 14 23 15 15 16 22 17 16 18 17 19 21 20 18 21 20 22 19 23
REMARK H PARENT
ROOT
ATOM      1  O   UNL     1       9.178 -27.345  22.693  1.00  0.00    -0.485 OA
ENDROOT
BRANCH   1   2
ATOM      2  C   UNL     1      10.419 -26.822  22.956  1.00  0.00     0.123 A 
ATOM      3  C   UNL     1      10.430 -25.609  23.665  1.00  0.00    -0.009 A 
ATOM      4  C   UNL     1      11.657 -25.015  23.990  1.00  0.00     0.007 A 
ATOM      5  C   UNL     1      12.859 -25.623  23.626  1.00  0.00     0.004 A 
ATOM      6  C   UNL     1      11.630 -27.430  22.607  1.00  0.00     0.050 A 
ATOM      7  C   UNL     1      12.862 -26.839  22.934  1.00  0.00    -0.042 A 
ATOM      8  C   UNL     1       9.146 -24.941  24.073  1.00  0.00     0.048 C 
BRANCH   7   9
ATOM      9  C   UNL     1      14.182 -27.494  22.565  1.00  0.00     0.013 C 
ATOM     10  C   UNL     1      14.496 -28.681  23.481  1.00  0.00     0.012 C 
ATOM     11  C   UNL     1      14.211 -27.916  21.095  1.00  0.00     0.012 C 
ENDBRANCH   7   9
ENDBRANCH   1   2
BRANCH   1  12
ATOM     12  C   UNL     1       9.093 -28.495  21.846  1.00  0.00     0.307 C 
BRANCH  12  13
ATOM     13  C   UNL     1       8.489 -29.614  22.603  1.00  0.00     0.174 A 
ATOM     14  C   UNL     1       7.892 -29.747  23.833  1.00  0.00     0.081 A 
ATOM     15  O   UNL     1       8.501 -30.824  21.990  1.00  0.00    -0.357 OA
ATOM     16  C   UNL     1       7.551 -31.122  23.936  1.00  0.00     0.114 A 
ATOM     17  N   UNL     1       7.919 -31.764  22.812  1.00  0.00    -0.079 NA
BRANCH  16  18
ATOM     18  C   UNL     1       6.899 -31.821  25.048  1.00  0.00     0.004 A 
ATOM     19  C   UNL     1       5.782 -32.643  24.818  1.00  0.00     0.010 A 
ATOM     20  C   UNL     1       7.370 -31.693  26.363  1.00  0.00     0.010 A 
ATOM     21  C   UNL     1       5.155 -33.312  25.873  1.00  0.00     0.001 A 
ATOM     22  C   UNL     1       6.742 -32.362  27.418  1.00  0.00     0.001 A 
ATOM     23  C   UNL     1       5.634 -33.170  27.173  1.00  0.00     0.000 A 
ENDBRANCH  16  18
ENDBRANCH  12  13
ENDBRANCH   1  12
TORSDOF 5
ENDMDL
MODEL 6
REMARK VINA RESULT:    -6.672      3.677      6.250
REMARK INTER + INTRA:          -9.296
REMARK INTER:                  -8.460
REMARK INTRA:                  -0.837
REMARK UNBOUND:                -0.674
REMARK SMILES Cc1ccc(C(C)C)cc1OCc1cc(-c2ccccc2)no1
REMARK SMILES IDX 11 1 10 2 2 3 3 4 4 5 9 6 5 7 1 8 6 9 7 10 8 11 12 12 13 13
REMARK SMILES IDX 14 14 23 15 15 16 22 17 16 18 17 19 21 20 18 21 20 22 19 23
REMARK H PARENT
ROOT
ATOM      1  O   UNL     1       8.650 -26.180  19.896  1.00  0.00    -0.485 OA
ENDROOT
BRANCH   1   2
ATOM      2  C   UNL     1       7.604 -25.299  19.997  1.00  0.00     0.123 A 
ATOM      3  C   UNL     1       6.472 -25.606  19.223  1.00  0.00    -0.009 A 
ATOM      4  C   UNL     1       5.352 -24.766  19.282  1.00  0.00     0.007 A 
ATOM      5  C   UNL     1       5.349 -23.642  20.108  1.00  0.00     0.004 A 
ATOM      6  C   UNL     1       7.587 -24.176  20.832  1.00  0.00     0.050 A 
ATOM      7  C   UNL     1       6.463 -23.333  20.896  1.00  0.00    -0.042 A 
ATOM      8  C   UNL     1       6.451 -26.817  18.333  1.00  0.00     0.048 C 
BRANCH   7   9
ATOM      9  C   UNL     1       6.433 -22.115  21.802  1.00  0.00     0.013 C 
ATOM     10  C   UNL     1       7.688 -21.254  21.628  1.00  0.00     0.012 C 
ATOM     11  C   UNL     1       5.166 -21.284  21.588  1.00  0.00     0.012 C 
ENDBRANCH   7   9
ENDBRANCH   1   2
BRANCH   1  12
ATOM     12  C   UNL     1       9.420 -26.457  21.070  1.00  0.00     0.307 C 
BRANCH  12  13
ATOM     13  C   UNL     1       9.014 -27.768  21.621  1.00  0.00     0.174 A 
ATOM     14  C   UNL     1       7.863 -28.518  21.604  1.00  0.00     0.081 A 
ATOM     15  O   UNL     1       9.961 -28.437  22.327  1.00  0.00    -0.357 OA
ATOM     16  C   UNL     1       8.166 -29.684  22.357  1.00  0.00     0.114 A 
ATOM     17  N   UNL     1       9.440 -29.628  22.785  1.00  0.00    -0.079 NA
BRANCH  16  18
ATOM     18  C   UNL     1       7.295 -30.821  22.669  1.00  0.00     0.004 A 
ATOM     19  C   UNL     1       6.743 -31.602  21.639  1.00  0.00     0.010 A 
ATOM     20  C   UNL     1       6.992 -31.162  23.996  1.00  0.00     0.010 A 
ATOM     21  C   UNL     1       5.911 -32.687  21.928  1.00  0.00     0.001 A 
ATOM     22  C   UNL     1       6.159 -32.248  24.284  1.00  0.00     0.001 A 
ATOM     23  C   UNL     1       5.618 -33.009  23.251  1.00  0.00     0.000 A 
ENDBRANCH  16  18
ENDBRANCH  12  13
ENDBRANCH   1  12
TORSDOF 5
ENDMDL
MODEL 7
REMARK VINA RESULT:    -6.625      2.719      4.268
REMARK INTER + INTRA:          -9.235
REMARK INTER:                  -8.523
REMARK INTRA:                  -0.712
REMARK UNBOUND:                -0.674
REMARK SMILES Cc1ccc(C(C)C)cc1OCc1cc(-c2ccccc2)no1
REMARK SMILES IDX 11 1 10 2 2 3 3 4 4 5 9 6 5 7 1 8 6 9 7 10 8 11 12 12 13 13
REMARK SMILES IDX 14 14 23 15 15 16 22 17 16 18 17 19 21 20 18 21 20 22 19 23
REMARK H PARENT
ROOT
ATOM      1  O   UNL     1      11.270 -23.634  23.946  1.00  0.00    -0.485 OA
ENDROOT
BRANCH   1   2
ATOM      2  C   UNL     1      11.564 -24.974  23.917  1.00  0.00     0.123 A 
ATOM      3  C   UNL     1      10.560 -25.827  24.406  1.00  0.00    -0.009 A 
ATOM      4  C   UNL     1      10.773 -27.213  24.395  1.00  0.00     0.007 A 
ATOM      5  C   UNL     1      11.961 -27.746  23.895  1.00  0.00     0.004 A 
ATOM      6  C   UNL     1      12.747 -25.519  23.405  1.00  0.00     0.050 A 
ATOM      7  C   UNL     1      12.961 -26.908  23.390  1.00  0.00    -0.042 A 
ATOM      8  C   UNL     1       9.270 -25.274  24.943  1.00  0.00     0.048 C 
BRANCH   7   9
ATOM      9  C   UNL     1      14.240 -27.510  22.832  1.00  0.00     0.013 C 
ATOM     10  C   UNL     1      14.561 -28.854  23.492  1.00  0.00     0.012 C 
ATOM     11  C   UNL     1      14.180 -27.650  21.310  1.00  0.00     0.012 C 
ENDBRANCH   7   9
ENDBRANCH   1   2
BRANCH   1  12
ATOM     12  C   UNL     1      11.134 -22.942  22.701  1.00  0.00     0.307 C 
BRANCH  12  13
ATOM     13  C   UNL     1       9.929 -23.436  21.998  1.00  0.00     0.174 A 
ATOM     14  C   UNL     1       8.590 -23.133  22.032  1.00  0.00     0.081 A 
ATOM     15  O   UNL     1      10.131 -24.427  21.093  1.00  0.00    -0.357 OA
ATOM     16  C   UNL     1       7.984 -24.015  21.097  1.00  0.00     0.114 A 
ATOM     17  N   UNL     1       8.927 -24.790  20.531  1.00  0.00    -0.079 NA
BRANCH  16  18
ATOM     18  C   UNL     1       6.567 -24.133  20.738  1.00  0.00     0.004 A 
ATOM     19  C   UNL     1       6.155 -25.036  19.743  1.00  0.00     0.010 A 
ATOM     20  C   UNL     1       5.589 -23.355  21.376  1.00  0.00     0.010 A 
ATOM     21  C   UNL     1       4.806 -25.153  19.395  1.00  0.00     0.001 A 
ATOM     22  C   UNL     1       4.240 -23.472  21.027  1.00  0.00     0.001 A 
ATOM     23  C   UNL     1       3.850 -24.370  20.036  1.00  0.00     0.000 A 
ENDBRANCH  16  18
ENDBRANCH  12  13
ENDBRANCH   1  12
TORSDOF 5
ENDMDL
MODEL 8
REMARK VINA RESULT:    -6.576      3.759      4.668
REMARK INTER + INTRA:          -9.171
REMARK INTER:                  -8.633
REMARK INTRA:                  -0.538
REMARK UNBOUND:                -0.674
REMARK SMILES Cc1ccc(C(C)C)cc1OCc1cc(-c2ccccc2)no1
REMARK SMILES IDX 11 1 10 2 2 3 3 4 4 5 9 6 5 7 1 8 6 9 7 10 8 11 12 12 13 13
REMARK SMILES IDX 14 14 23 15 15 16 22 17 16 18 17 19 21 20 18 21 20 22 19 23
REMARK H PARENT
ROOT
ATOM      1  O   UNL     1      10.655 -27.857  23.477  1.00  0.00    -0.485 OA
ENDROOT
BRANCH   1   2
ATOM      2  C   UNL     1      11.486 -26.770  23.378  1.00  0.00     0.123 A 
ATOM      3  C   UNL     1      12.850 -27.060  23.208  1.00  0.00    -0.009 A 
ATOM      4  C   UNL     1      13.765 -26.006  23.081  1.00  0.00     0.007 A 
ATOM      5  C   UNL     1      13.331 -24.681  23.111  1.00  0.00     0.004 A 
ATOM      6  C   UNL     1      11.058 -25.438  23.394  1.00  0.00     0.050 A 
ATOM      7  C   UNL     1      11.973 -24.378  23.264  1.00  0.00    -0.042 A 
ATOM      8  C   UNL     1      13.338 -28.482  23.166  1.00  0.00     0.048 C 
BRANCH   7   9
ATOM      9  C   UNL     1      11.519 -22.929  23.275  1.00  0.00     0.013 C 
ATOM     10  C   UNL     1      10.389 -22.702  24.284  1.00  0.00     0.012 C 
ATOM     11  C   UNL     1      12.686 -21.974  23.537  1.00  0.00     0.012 C 
ENDBRANCH   7   9
ENDBRANCH   1   2
BRANCH   1  12
ATOM     12  C   UNL     1       9.426 -27.840  22.745  1.00  0.00     0.307 C 
BRANCH  12  13
ATOM     13  C   UNL     1       8.700 -29.108  22.980  1.00  0.00     0.174 A 
ATOM     14  C   UNL     1       7.821 -29.564  23.932  1.00  0.00     0.081 A 
ATOM     15  O   UNL     1       8.917 -30.096  22.076  1.00  0.00    -0.357 OA
ATOM     16  C   UNL     1       7.525 -30.901  23.556  1.00  0.00     0.114 A 
ATOM     17  N   UNL     1       8.189 -31.212  22.428  1.00  0.00    -0.079 NA
BRANCH  16  18
ATOM     18  C   UNL     1       6.646 -31.866  24.226  1.00  0.00     0.004 A 
ATOM     19  C   UNL     1       5.722 -32.624  23.487  1.00  0.00     0.010 A 
ATOM     20  C   UNL     1       6.705 -32.059  25.614  1.00  0.00     0.010 A 
ATOM     21  C   UNL     1       4.881 -33.544  24.118  1.00  0.00     0.001 A 
ATOM     22  C   UNL     1       5.863 -32.980  26.246  1.00  0.00     0.001 A 
ATOM     23  C   UNL     1       4.951 -33.721  25.498  1.00  0.00     0.000 A 
ENDBRANCH  16  18
ENDBRANCH  12  13
ENDBRANCH   1  12
TORSDOF 5
ENDMDL
