MODEL 1
REMARK VINA RESULT:    -5.417      0.000      0.000
REMARK INTER + INTRA:          -6.956
REMARK INTER:                  -6.367
REMARK INTRA:                  -0.589
REMARK UNBOUND:                -0.589
REMARK SMILES C#CCOc1cc(C(C)C)ccc1C
REMARK SMILES IDX 5 1 6 2 7 3 11 4 12 5 13 6 14 7 4 8 3 9 2 10 1 11 8 12 9 13
REMARK SMILES IDX 10 14
REMARK H PARENT
ROOT
ATOM      1  C   UNL     1      12.761 -23.297  22.983  1.00  0.00     0.123 A 
ATOM      2  C   UNL     1      13.615 -24.399  22.853  1.00  0.00     0.050 A 
ATOM      3  C   UNL     1      13.240 -25.671  23.321  1.00  0.00    -0.042 A 
ATOM      4  C   UNL     1      11.986 -25.819  23.928  1.00  0.00     0.004 A 
ATOM      5  C   UNL     1      11.129 -24.727  24.062  1.00  0.00     0.007 A 
ATOM      6  C   UNL     1      11.506 -23.461  23.594  1.00  0.00    -0.009 A 
ATOM      7  C   UNL     1      10.566 -22.298  23.748  1.00  0.00     0.048 C 
ENDROOT
BRANCH   1   8
ATOM      8  O   UNL     1      13.045 -22.025  22.556  1.00  0.00    -0.481 OA
BRANCH   8   9
ATOM      9  C   UNL     1      14.212 -21.395  23.080  1.00  0.00     0.318 C 
ATOM     10  C   UNL     1      13.835 -20.598  24.256  1.00  0.00    -0.065 C 
ATOM     11  C   UNL     1      13.526 -19.947  25.218  1.00  0.00     0.007 C 
ENDBRANCH   8   9
ENDBRANCH   1   8
BRANCH   3  12
ATOM     12  C   UNL     1      14.190 -26.845  23.165  1.00  0.00     0.013 C 
ATOM     13  C   UNL     1      13.750 -27.779  22.035  1.00  0.00     0.012 C 
ATOM     14  C   UNL     1      14.354 -27.616  24.477  1.00  0.00     0.012 C 
ENDBRANCH   3  12
TORSDOF 3
ENDMDL
MODEL 2
REMARK VINA RESULT:    -5.100      2.536      5.154
REMARK INTER + INTRA:          -6.584
REMARK INTER:                  -5.942
REMARK INTRA:                  -0.642
REMARK UNBOUND:                -0.589
REMARK SMILES C#CCOc1cc(C(C)C)ccc1C
REMARK SMILES IDX 5 1 6 2 7 3 11 4 12 5 13 6 14 7 4 8 3 9 2 10 1 11 8 12 9 13
REMARK SMILES IDX 10 14
REMARK H PARENT
ROOT
ATOM      1  C   UNL     1      12.508 -26.325  24.273  1.00  0.00     0.123 A 
ATOM      2  C   UNL     1      11.461 -27.115  24.763  1.00  0.00     0.050 A 
ATOM      3  C   UNL     1      10.120 -26.716  24.618  1.00  0.00    -0.042 A 
ATOM      4  C   UNL     1       9.846 -25.505  23.970  1.00  0.00     0.004 A 
ATOM      5  C   UNL     1      10.883 -24.713  23.479  1.00  0.00     0.007 A 
ATOM      6  C   UNL     1      12.219 -25.112  23.625  1.00  0.00    -0.009 A 
ATOM      7  C   UNL     1      13.321 -24.243  23.087  1.00  0.00     0.048 C 
ENDROOT
BRANCH   1   8
ATOM      8  O   UNL     1      13.841 -26.635  24.370  1.00  0.00    -0.481 OA
BRANCH   8   9
ATOM      9  C   UNL     1      14.265 -27.901  23.871  1.00  0.00     0.318 C 
ATOM     10  C   UNL     1      14.241 -27.866  22.401  1.00  0.00    -0.065 C 
ATOM     11  C   UNL     1      14.221 -27.837  21.200  1.00  0.00     0.007 C 
ENDBRANCH   8   9
ENDBRANCH   1   8
BRANCH   3  12
ATOM     12  C   UNL     1       9.007 -27.596  25.161  1.00  0.00     0.013 C 
ATOM     13  C   UNL     1       7.630 -27.106  24.707  1.00  0.00     0.012 C 
ATOM     14  C   UNL     1       9.071 -27.707  26.686  1.00  0.00     0.012 C 
ENDBRANCH   3  12
TORSDOF 3
ENDMDL
MODEL 3
REMARK VINA RESULT:    -5.075      3.077      4.785
REMARK INTER + INTRA:          -6.554
REMARK INTER:                  -6.133
REMARK INTRA:                  -0.421
REMARK UNBOUND:                -0.589
REMARK SMILES C#CCOc1cc(C(C)C)ccc1C
REMARK SMILES IDX 5 1 6 2 7 3 11 4 12 5 13 6 14 7 4 8 3 9 2 10 1 11 8 12 9 13
REMARK SMILES IDX 10 14
REMARK H PARENT
ROOT
ATOM      1  C   UNL     1      10.614 -25.489  22.161  1.00  0.00     0.123 A 
ATOM      2  C   UNL     1      11.703 -26.349  22.345  1.00  0.00     0.050 A 
ATOM      3  C   UNL     1      12.979 -25.851  22.662  1.00  0.00    -0.042 A 
ATOM      4  C   UNL     1      13.145 -24.466  22.790  1.00  0.00     0.004 A 
ATOM      5  C   UNL     1      12.066 -23.602  22.608  1.00  0.00     0.007 A 
ATOM      6  C   UNL     1      10.795 -24.102  22.293  1.00  0.00    -0.009 A 
ATOM      7  C   UNL     1       9.646 -23.152  22.103  1.00  0.00     0.048 C 
ENDROOT
BRANCH   1   8
ATOM      8  O   UNL     1       9.338 -25.888  21.851  1.00  0.00    -0.481 OA
BRANCH   8   9
ATOM      9  C   UNL     1       9.187 -27.002  20.975  1.00  0.00     0.318 C 
ATOM     10  C   UNL     1       8.516 -26.552  19.746  1.00  0.00    -0.065 C 
ATOM     11  C   UNL     1       7.967 -26.185  18.742  1.00  0.00     0.007 C 
ENDBRANCH   8   9
ENDBRANCH   1   8
BRANCH   3  12
ATOM     12  C   UNL     1      14.140 -26.811  22.854  1.00  0.00     0.013 C 
ATOM     13  C   UNL     1      14.148 -27.906  21.784  1.00  0.00     0.012 C 
ATOM     14  C   UNL     1      14.140 -27.421  24.258  1.00  0.00     0.012 C 
ENDBRANCH   3  12
TORSDOF 3
ENDMDL
MODEL 4
REMARK VINA RESULT:    -4.895      1.379      4.907
REMARK INTER + INTRA:          -6.342
REMARK INTER:                  -5.829
REMARK INTRA:                  -0.513
REMARK UNBOUND:                -0.589
REMARK SMILES C#CCOc1cc(C(C)C)ccc1C
REMARK SMILES IDX 5 1 6 2 7 3 11 4 12 5 13 6 14 7 4 8 3 9 2 10 1 11 8 12 9 13
REMARK SMILES IDX 10 14
REMARK H PARENT
ROOT
ATOM      1  C   UNL     1      12.444 -24.688  22.821  1.00  0.00     0.123 A 
ATOM      2  C   UNL     1      13.365 -23.635  22.860  1.00  0.00     0.050 A 
ATOM      3  C   UNL     1      13.032 -22.397  23.439  1.00  0.00    -0.042 A 
ATOM      4  C   UNL     1      11.751 -22.234  23.981  1.00  0.00     0.004 A 
ATOM      5  C   UNL     1      10.827 -23.278  23.947  1.00  0.00     0.007 A 
ATOM      6  C   UNL     1      11.163 -24.510  23.369  1.00  0.00    -0.009 A 
ATOM      7  C   UNL     1      10.151 -25.623  23.344  1.00  0.00     0.048 C 
ENDROOT
BRANCH   1   8
ATOM      8  O   UNL     1      12.684 -25.925  22.278  1.00  0.00    -0.481 OA
BRANCH   8   9
ATOM      9  C   UNL     1      14.022 -26.415  22.311  1.00  0.00     0.318 C 
ATOM     10  C   UNL     1      14.230 -27.148  23.568  1.00  0.00    -0.065 C 
ATOM     11  C   UNL     1      14.400 -27.747  24.596  1.00  0.00     0.007 C 
ENDBRANCH   8   9
ENDBRANCH   1   8
BRANCH   3  12
ATOM     12  C   UNL     1      14.054 -21.274  23.464  1.00  0.00     0.013 C 
ATOM     13  C   UNL     1      13.719 -20.233  24.536  1.00  0.00     0.012 C 
ATOM     14  C   UNL     1      14.201 -20.616  22.091  1.00  0.00     0.012 C 
ENDBRANCH   3  12
TORSDOF 3
ENDMDL
MODEL 5
REMARK VINA RESULT:    -4.748      1.835      3.736
REMARK INTER + INTRA:          -6.170
REMARK INTER:                  -5.538
REMARK INTRA:                  -0.631
REMARK UNBOUND:                -0.589
REMARK SMILES C#CCOc1cc(C(C)C)ccc1C
REMARK SMILES IDX 5 1 6 2 7 3 11 4 12 5 13 6 14 7 4 8 3 9 2 10 1 11 8 12 9 13
REMARK SMILES IDX 10 14
REMARK H PARENT
ROOT
ATOM      1  C   UNL     1      11.256 -24.517  24.013  1.00  0.00     0.123 A 
ATOM      2  C   UNL     1      11.748 -25.827  23.990  1.00  0.00     0.050 A 
ATOM      3  C   UNL     1      13.018 -26.119  23.459  1.00  0.00    -0.042 A 
ATOM      4  C   UNL     1      13.788 -25.067  22.947  1.00  0.00     0.004 A 
ATOM      5  C   UNL     1      13.306 -23.759  22.967  1.00  0.00     0.007 A 
ATOM      6  C   UNL     1      12.041 -23.472  23.497  1.00  0.00    -0.009 A 
ATOM      7  C   UNL     1      11.541 -22.054  23.508  1.00  0.00     0.048 C 
ENDROOT
BRANCH   1   8
ATOM      8  O   UNL     1      10.034 -24.143  24.511  1.00  0.00    -0.481 OA
BRANCH   8   9
ATOM      9  C   UNL     1       8.879 -24.798  23.992  1.00  0.00     0.318 C 
ATOM     10  C   UNL     1       8.546 -24.210  22.686  1.00  0.00    -0.065 C 
ATOM     11  C   UNL     1       8.273 -23.730  21.619  1.00  0.00     0.007 C 
ENDBRANCH   8   9
ENDBRANCH   1   8
BRANCH   3  12
ATOM     12  C   UNL     1      13.522 -27.552  23.448  1.00  0.00     0.013 C 
ATOM     13  C   UNL     1      14.545 -27.797  24.560  1.00  0.00     0.012 C 
ATOM     14  C   UNL     1      14.097 -27.936  22.083  1.00  0.00     0.012 C 
ENDBRANCH   3  12
TORSDOF 3
ENDMDL
MODEL 6
REMARK VINA RESULT:    -4.739      4.154      5.027
REMARK INTER + INTRA:          -6.159
REMARK INTER:                  -5.521
REMARK INTRA:                  -0.638
REMARK UNBOUND:                -0.589
REMARK SMILES C#CCOc1cc(C(C)C)ccc1C
REMARK SMILES IDX 5 1 6 2 7 3 11 4 12 5 13 6 14 7 4 8 3 9 2 10 1 11 8 12 9 13
REMARK SMILES IDX 10 14
REMARK H PARENT
ROOT
ATOM      1  C   UNL     1       9.927 -27.563  22.490  1.00  0.00     0.123 A 
ATOM      2  C   UNL     1      11.243 -27.795  22.074  1.00  0.00     0.050 A 
ATOM      3  C   UNL     1      12.322 -27.677  22.969  1.00  0.00    -0.042 A 
ATOM      4  C   UNL     1      12.055 -27.319  24.296  1.00  0.00     0.004 A 
ATOM      5  C   UNL     1      10.747 -27.086  24.720  1.00  0.00     0.007 A 
ATOM      6  C   UNL     1       9.675 -27.205  23.825  1.00  0.00    -0.009 A 
ATOM      7  C   UNL     1       8.272 -26.949  24.303  1.00  0.00     0.048 C 
ENDROOT
BRANCH   1   8
ATOM      8  O   UNL     1       8.819 -27.655  21.687  1.00  0.00    -0.481 OA
BRANCH   8   9
ATOM      9  C   UNL     1       8.801 -26.880  20.491  1.00  0.00     0.318 C 
ATOM     10  C   UNL     1       8.640 -25.462  20.846  1.00  0.00    -0.065 C 
ATOM     11  C   UNL     1       8.508 -24.303  21.136  1.00  0.00     0.007 C 
ENDBRANCH   8   9
ENDBRANCH   1   8
BRANCH   3  12
ATOM     12  C   UNL     1      13.738 -27.935  22.485  1.00  0.00     0.013 C 
ATOM     13  C   UNL     1      14.530 -28.778  23.487  1.00  0.00     0.012 C 
ATOM     14  C   UNL     1      14.472 -26.630  22.169  1.00  0.00     0.012 C 
ENDBRANCH   3  12
TORSDOF 3
ENDMDL
MODEL 7
REMARK VINA RESULT:    -4.713      5.605      8.248
REMARK INTER + INTRA:          -6.129
REMARK INTER:                  -5.755
REMARK INTRA:                  -0.375
REMARK UNBOUND:                -0.589
REMARK SMILES C#CCOc1cc(C(C)C)ccc1C
REMARK SMILES IDX 5 1 6 2 7 3 11 4 12 5 13 6 14 7 4 8 3 9 2 10 1 11 8 12 9 13
REMARK SMILES IDX 10 14
REMARK H PARENT
ROOT
ATOM      1  C   UNL     1       9.297 -28.336  21.968  1.00  0.00     0.123 A 
ATOM      2  C   UNL     1       8.245 -27.776  21.234  1.00  0.00     0.050 A 
ATOM      3  C   UNL     1       8.324 -26.464  20.733  1.00  0.00    -0.042 A 
ATOM      4  C   UNL     1       9.483 -25.720  20.983  1.00  0.00     0.004 A 
ATOM      5  C   UNL     1      10.537 -26.270  21.713  1.00  0.00     0.007 A 
ATOM      6  C   UNL     1      10.455 -27.577  22.211  1.00  0.00    -0.009 A 
ATOM      7  C   UNL     1      11.603 -28.151  22.995  1.00  0.00     0.048 C 
ENDROOT
BRANCH   1   8
ATOM      8  O   UNL     1       9.305 -29.604  22.492  1.00  0.00    -0.481 OA
BRANCH   8   9
ATOM      9  C   UNL     1       8.060 -30.152  22.917  1.00  0.00     0.318 C 
ATOM     10  C   UNL     1       7.815 -31.402  22.182  1.00  0.00    -0.065 C 
ATOM     11  C   UNL     1       7.615 -32.423  21.580  1.00  0.00     0.007 C 
ENDBRANCH   8   9
ENDBRANCH   1   8
BRANCH   3  12
ATOM     12  C   UNL     1       7.164 -25.886  19.941  1.00  0.00     0.013 C 
ATOM     13  C   UNL     1       5.903 -26.742  20.084  1.00  0.00     0.012 C 
ATOM     14  C   UNL     1       7.528 -25.694  18.467  1.00  0.00     0.012 C 
ENDBRANCH   3  12
TORSDOF 3
ENDMDL
MODEL 8
REMARK VINA RESULT:    -4.679      3.066      4.885
REMARK INTER + INTRA:          -6.089
REMARK INTER:                  -5.685
REMARK INTRA:                  -0.404
REMARK UNBOUND:                -0.589
REMARK SMILES C#CCOc1cc(C(C)C)ccc1C
REMARK SMILES IDX 5 1 6 2 7 3 11 4 12 5 13 6 14 7 4 8 3 9 2 10 1 11 8 12 9 13
REMARK SMILES IDX 10 14
REMARK H PARENT
ROOT
ATOM      1  C   UNL     1      11.537 -25.154  22.737  1.00  0.00     0.123 A 
ATOM      2  C   UNL     1      10.844 -26.128  22.009  1.00  0.00     0.050 A 
ATOM      3  C   UNL     1       9.687 -25.804  21.277  1.00  0.00    -0.042 A 
ATOM      4  C   UNL     1       9.236 -24.479  21.288  1.00  0.00     0.004 A 
ATOM      5  C   UNL     1       9.920 -23.502  22.011  1.00  0.00     0.007 A 
ATOM      6  C   UNL     1      11.072 -23.827  22.739  1.00  0.00    -0.009 A 
ATOM      7  C   UNL     1      11.796 -22.758  23.510  1.00  0.00     0.048 C 
ENDROOT
BRANCH   1   8
ATOM      8  O   UNL     1      12.670 -25.380  23.477  1.00  0.00    -0.481 OA
BRANCH   8   9
ATOM      9  C   UNL     1      13.829 -25.844  22.788  1.00  0.00     0.318 C 
ATOM     10  C   UNL     1      14.158 -27.195  23.267  1.00  0.00    -0.065 C 
ATOM     11  C   UNL     1      14.427 -28.299  23.659  1.00  0.00     0.007 C 
ENDBRANCH   8   9
ENDBRANCH   1   8
BRANCH   3  12
ATOM     12  C   UNL     1       8.958 -26.885  20.499  1.00  0.00     0.013 C 
ATOM     13  C   UNL     1       8.223 -26.307  19.287  1.00  0.00     0.012 C 
ATOM     14  C   UNL     1       7.998 -27.674  21.394  1.00  0.00     0.012 C 
ENDBRANCH   3  12
TORSDOF 3
ENDMDL
