MODEL 1
REMARK VINA RESULT:    -5.069      0.000      0.000
REMARK INTER + INTRA:          -6.658
REMARK INTER:                  -6.106
REMARK INTRA:                  -0.552
REMARK UNBOUND:                -0.552
REMARK SMILES CC(=O)Oc1ccccc1C(=O)O
REMARK SMILES IDX 5 1 6 2 7 3 8 4 9 5 10 6 4 7 2 8 3 9 1 10 11 11 12 12 13 13
REMARK H PARENT 13 14
ROOT
ATOM      1  C   UNL     1       6.089 -26.039  20.246  1.00  0.00     0.145 A 
ATOM      2  C   UNL     1       6.445 -26.176  21.592  1.00  0.00     0.048 A 
ATOM      3  C   UNL     1       7.787 -26.321  21.941  1.00  0.00     0.004 A 
ATOM      4  C   UNL     1       8.765 -26.341  20.947  1.00  0.00     0.001 A 
ATOM      5  C   UNL     1       8.405 -26.222  19.600  1.00  0.00     0.019 A 
ATOM      6  C   UNL     1       7.058 -26.076  19.232  1.00  0.00     0.102 A 
ENDROOT
BRANCH   1   7
ATOM      7  O   UNL     1       4.726 -25.927  19.964  1.00  0.00    -0.426 OA
BRANCH   7   8
ATOM      8  C   UNL     1       4.248 -24.633  20.141  1.00  0.00     0.308 C 
ATOM      9  O   UNL     1       4.660 -23.620  19.592  1.00  0.00    -0.252 OA
ATOM     10  C   UNL     1       3.139 -24.659  21.151  1.00  0.00     0.139 C 
ENDBRANCH   7   8
ENDBRANCH   1   7
BRANCH   6  11
ATOM     11  C   UNL     1       6.665 -25.979  17.802  1.00  0.00     0.339 C 
ATOM     12  O   UNL     1       6.962 -25.099  17.016  1.00  0.00    -0.246 OA
BRANCH  11  13
ATOM     13  O   UNL     1       5.894 -27.012  17.408  1.00  0.00    -0.478 OA
ATOM     14  H   UNL     1       6.411 -27.426  16.686  1.00  0.00     0.297 HD
ENDBRANCH  11  13
ENDBRANCH   6  11
TORSDOF 4
ENDMDL
MODEL 2
REMARK VINA RESULT:    -5.031      1.599      3.464
REMARK INTER + INTRA:          -6.613
REMARK INTER:                  -6.110
REMARK INTRA:                  -0.503
REMARK UNBOUND:                -0.552
REMARK SMILES CC(=O)Oc1ccccc1C(=O)O
REMARK SMILES IDX 5 1 6 2 7 3 8 4 9 5 10 6 4 7 2 8 3 9 1 10 11 11 12 12 13 13
REMARK H PARENT 13 14
ROOT
ATOM      1  C   UNL     1       6.288 -26.530  20.350  1.00  0.00     0.145 A 
ATOM      2  C   UNL     1       5.805 -26.382  21.655  1.00  0.00     0.048 A 
ATOM      3  C   UNL     1       4.704 -25.562  21.895  1.00  0.00     0.004 A 
ATOM      4  C   UNL     1       4.099 -24.883  20.837  1.00  0.00     0.001 A 
ATOM      5  C   UNL     1       4.596 -25.018  19.536  1.00  0.00     0.019 A 
ATOM      6  C   UNL     1       5.703 -25.840  19.278  1.00  0.00     0.102 A 
ENDROOT
BRANCH   1   7
ATOM      7  O   UNL     1       7.411 -27.344  20.183  1.00  0.00    -0.426 OA
BRANCH   7   8
ATOM      8  C   UNL     1       8.591 -26.712  20.562  1.00  0.00     0.308 C 
ATOM      9  O   UNL     1       8.971 -25.602  20.212  1.00  0.00    -0.252 OA
ATOM     10  C   UNL     1       9.361 -27.625  21.469  1.00  0.00     0.139 C 
ENDBRANCH   7   8
ENDBRANCH   1   7
BRANCH   6  11
ATOM     11  C   UNL     1       6.255 -25.965  17.903  1.00  0.00     0.339 C 
ATOM     12  O   UNL     1       6.911 -25.140  17.296  1.00  0.00    -0.246 OA
BRANCH  11  13
ATOM     13  O   UNL     1       5.950 -27.147  17.330  1.00  0.00    -0.478 OA
ATOM     14  H   UNL     1       6.789 -27.651  17.376  1.00  0.00     0.297 HD
ENDBRANCH  11  13
ENDBRANCH   6  11
TORSDOF 4
ENDMDL
MODEL 3
REMARK VINA RESULT:    -4.953      6.460      7.854
REMARK INTER + INTRA:          -6.518
REMARK INTER:                  -5.803
REMARK INTRA:                  -0.715
REMARK UNBOUND:                -0.552
REMARK SMILES CC(=O)Oc1ccccc1C(=O)O
REMARK SMILES IDX 5 1 6 2 7 3 8 4 9 5 10 6 4 7 2 8 3 9 1 10 11 11 12 12 13 13
REMARK H PARENT 13 14
ROOT
ATOM      1  C   UNL     1      11.813 -26.306  24.094  1.00  0.00     0.145 A 
ATOM      2  C   UNL     1      11.050 -25.153  23.876  1.00  0.00     0.048 A 
ATOM      3  C   UNL     1      11.635 -24.044  23.269  1.00  0.00     0.004 A 
ATOM      4  C   UNL     1      12.979 -24.083  22.894  1.00  0.00     0.001 A 
ATOM      5  C   UNL     1      13.743 -25.230  23.130  1.00  0.00     0.019 A 
ATOM      6  C   UNL     1      13.169 -26.356  23.741  1.00  0.00     0.102 A 
ENDROOT
BRANCH   1   7
ATOM      7  O   UNL     1      11.173 -27.372  24.732  1.00  0.00    -0.426 OA
BRANCH   7   8
ATOM      8  C   UNL     1      10.336 -28.082  23.879  1.00  0.00     0.308 C 
ATOM      9  O   UNL     1      10.650 -28.615  22.823  1.00  0.00    -0.252 OA
ATOM     10  C   UNL     1       8.947 -28.076  24.446  1.00  0.00     0.139 C 
ENDBRANCH   7   8
ENDBRANCH   1   7
BRANCH   6  11
ATOM     11  C   UNL     1      13.983 -27.569  24.021  1.00  0.00     0.339 C 
ATOM     12  O   UNL     1      14.869 -27.684  24.847  1.00  0.00    -0.246 OA
BRANCH  11  13
ATOM     13  O   UNL     1      13.646 -28.609  23.234  1.00  0.00    -0.478 OA
ATOM     14  H   UNL     1      13.301 -29.276  23.864  1.00  0.00     0.297 HD
ENDBRANCH  11  13
ENDBRANCH   6  11
TORSDOF 4
ENDMDL
MODEL 4
REMARK VINA RESULT:    -4.654      2.051      3.154
REMARK INTER + INTRA:          -6.159
REMARK INTER:                  -5.753
REMARK INTRA:                  -0.406
REMARK UNBOUND:                -0.552
REMARK SMILES CC(=O)Oc1ccccc1C(=O)O
REMARK SMILES IDX 5 1 6 2 7 3 8 4 9 5 10 6 4 7 2 8 3 9 1 10 11 11 12 12 13 13
REMARK H PARENT 13 14
ROOT
ATOM      1  C   UNL     1       7.885 -26.092  20.178  1.00  0.00     0.145 A 
ATOM      2  C   UNL     1       8.118 -26.995  21.221  1.00  0.00     0.048 A 
ATOM      3  C   UNL     1       7.317 -28.129  21.344  1.00  0.00     0.004 A 
ATOM      4  C   UNL     1       6.282 -28.351  20.436  1.00  0.00     0.001 A 
ATOM      5  C   UNL     1       6.040 -27.437  19.405  1.00  0.00     0.019 A 
ATOM      6  C   UNL     1       6.836 -26.290  19.268  1.00  0.00     0.102 A 
ENDROOT
BRANCH   1   7
ATOM      7  O   UNL     1       8.704 -24.961  20.130  1.00  0.00    -0.426 OA
BRANCH   7   8
ATOM      8  C   UNL     1       8.467 -24.083  21.183  1.00  0.00     0.308 C 
ATOM      9  O   UNL     1       7.382 -23.635  21.529  1.00  0.00    -0.252 OA
ATOM     10  C   UNL     1       9.774 -23.739  21.832  1.00  0.00     0.139 C 
ENDBRANCH   7   8
ENDBRANCH   1   7
BRANCH   6  11
ATOM     11  C   UNL     1       6.566 -25.298  18.193  1.00  0.00     0.339 C 
ATOM     12  O   UNL     1       7.153 -25.186  17.133  1.00  0.00    -0.246 OA
BRANCH  11  13
ATOM     13  O   UNL     1       5.552 -24.467  18.501  1.00  0.00    -0.478 OA
ATOM     14  H   UNL     1       5.951 -23.575  18.425  1.00  0.00     0.297 HD
ENDBRANCH  11  13
ENDBRANCH   6  11
TORSDOF 4
ENDMDL
MODEL 5
REMARK VINA RESULT:    -4.642      5.493      7.477
REMARK INTER + INTRA:          -6.145
REMARK INTER:                  -5.535
REMARK INTRA:                  -0.610
REMARK UNBOUND:                -0.552
REMARK SMILES CC(=O)Oc1ccccc1C(=O)O
REMARK SMILES IDX 5 1 6 2 7 3 8 4 9 5 10 6 4 7 2 8 3 9 1 10 11 11 12 12 13 13
REMARK H PARENT 13 14
ROOT
ATOM      1  C   UNL     1      12.223 -26.289  22.965  1.00  0.00     0.145 A 
ATOM      2  C   UNL     1      13.161 -25.283  23.222  1.00  0.00     0.048 A 
ATOM      3  C   UNL     1      12.903 -23.977  22.812  1.00  0.00     0.004 A 
ATOM      4  C   UNL     1      11.718 -23.681  22.136  1.00  0.00     0.001 A 
ATOM      5  C   UNL     1      10.791 -24.692  21.864  1.00  0.00     0.019 A 
ATOM      6  C   UNL     1      11.036 -26.013  22.270  1.00  0.00     0.102 A 
ENDROOT
BRANCH   1   7
ATOM      7  O   UNL     1      12.557 -27.581  23.378  1.00  0.00    -0.426 OA
BRANCH   7   8
ATOM      8  C   UNL     1      13.609 -28.121  22.646  1.00  0.00     0.308 C 
ATOM      9  O   UNL     1      13.758 -28.068  21.433  1.00  0.00    -0.252 OA
ATOM     10  C   UNL     1      14.547 -28.817  23.587  1.00  0.00     0.139 C 
ENDBRANCH   7   8
ENDBRANCH   1   7
BRANCH   6  11
ATOM     11  C   UNL     1      10.068 -27.098  21.959  1.00  0.00     0.339 C 
ATOM     12  O   UNL     1       8.880 -27.121  22.220  1.00  0.00    -0.246 OA
BRANCH  11  13
ATOM     13  O   UNL     1      10.645 -28.136  21.322  1.00  0.00    -0.478 OA
ATOM     14  H   UNL     1      10.882 -28.752  22.046  1.00  0.00     0.297 HD
ENDBRANCH  11  13
ENDBRANCH   6  11
TORSDOF 4
ENDMDL
MODEL 6
REMARK VINA RESULT:    -4.601      6.272      8.051
REMARK INTER + INTRA:          -6.095
REMARK INTER:                  -5.550
REMARK INTRA:                  -0.545
REMARK UNBOUND:                -0.552
REMARK SMILES CC(=O)Oc1ccccc1C(=O)O
REMARK SMILES IDX 5 1 6 2 7 3 8 4 9 5 10 6 4 7 2 8 3 9 1 10 11 11 12 12 13 13
REMARK H PARENT 13 14
ROOT
ATOM      1  C   UNL     1      12.383 -25.982  23.909  1.00  0.00     0.145 A 
ATOM      2  C   UNL     1      13.375 -25.168  23.351  1.00  0.00     0.048 A 
ATOM      3  C   UNL     1      13.060 -23.869  22.957  1.00  0.00     0.004 A 
ATOM      4  C   UNL     1      11.757 -23.392  23.109  1.00  0.00     0.001 A 
ATOM      5  C   UNL     1      10.764 -24.215  23.650  1.00  0.00     0.019 A 
ATOM      6  C   UNL     1      11.064 -25.526  24.051  1.00  0.00     0.102 A 
ENDROOT
BRANCH   1   7
ATOM      7  O   UNL     1      12.759 -27.283  24.255  1.00  0.00    -0.426 OA
BRANCH   7   8
ATOM      8  C   UNL     1      12.923 -28.105  23.146  1.00  0.00     0.308 C 
ATOM      9  O   UNL     1      12.081 -28.365  22.297  1.00  0.00    -0.252 OA
ATOM     10  C   UNL     1      14.316 -28.662  23.158  1.00  0.00     0.139 C 
ENDBRANCH   7   8
ENDBRANCH   1   7
BRANCH   6  11
ATOM     11  C   UNL     1      10.008 -26.416  24.600  1.00  0.00     0.339 C 
ATOM     12  O   UNL     1       8.892 -26.597  24.148  1.00  0.00    -0.246 OA
BRANCH  11  13
ATOM     13  O   UNL     1      10.400 -27.054  25.720  1.00  0.00    -0.478 OA
ATOM     14  H   UNL     1      10.497 -27.986  25.435  1.00  0.00     0.297 HD
ENDBRANCH  11  13
ENDBRANCH   6  11
TORSDOF 4
ENDMDL
MODEL 7
REMARK VINA RESULT:    -4.451      6.472      7.548
REMARK INTER + INTRA:          -5.914
REMARK INTER:                  -5.409
REMARK INTRA:                  -0.505
REMARK UNBOUND:                -0.552
REMARK SMILES CC(=O)Oc1ccccc1C(=O)O
REMARK SMILES IDX 5 1 6 2 7 3 8 4 9 5 10 6 4 7 2 8 3 9 1 10 11 11 12 12 13 13
REMARK H PARENT 13 14
ROOT
ATOM      1  C   UNL     1      12.562 -25.829  23.412  1.00  0.00     0.145 A 
ATOM      2  C   UNL     1      13.784 -25.593  22.772  1.00  0.00     0.048 A 
ATOM      3  C   UNL     1      14.482 -26.656  22.202  1.00  0.00     0.004 A 
ATOM      4  C   UNL     1      13.967 -27.950  22.284  1.00  0.00     0.001 A 
ATOM      5  C   UNL     1      12.754 -28.185  22.940  1.00  0.00     0.019 A 
ATOM      6  C   UNL     1      12.039 -27.126  23.519  1.00  0.00     0.102 A 
ENDROOT
BRANCH   1   7
ATOM      7  O   UNL     1      11.929 -24.724  23.986  1.00  0.00    -0.426 OA
BRANCH   7   8
ATOM      8  C   UNL     1      11.540 -23.780  23.042  1.00  0.00     0.308 C 
ATOM      9  O   UNL     1      10.905 -23.991  22.017  1.00  0.00    -0.252 OA
ATOM     10  C   UNL     1      12.048 -22.434  23.464  1.00  0.00     0.139 C 
ENDBRANCH   7   8
ENDBRANCH   1   7
BRANCH   6  11
ATOM     11  C   UNL     1      10.765 -27.373  24.244  1.00  0.00     0.339 C 
ATOM     12  O   UNL     1       9.743 -27.854  23.791  1.00  0.00    -0.246 OA
BRANCH  11  13
ATOM     13  O   UNL     1      10.823 -26.993  25.535  1.00  0.00    -0.478 OA
ATOM     14  H   UNL     1       9.884 -26.952  25.809  1.00  0.00     0.297 HD
ENDBRANCH  11  13
ENDBRANCH   6  11
TORSDOF 4
ENDMDL
MODEL 8
REMARK VINA RESULT:    -4.420      7.564      8.711
REMARK INTER + INTRA:          -5.877
REMARK INTER:                  -5.322
REMARK INTRA:                  -0.555
REMARK UNBOUND:                -0.552
REMARK SMILES CC(=O)Oc1ccccc1C(=O)O
REMARK SMILES IDX 5 1 6 2 7 3 8 4 9 5 10 6 4 7 2 8 3 9 1 10 11 11 12 12 13 13
REMARK H PARENT 13 14
ROOT
ATOM      1  C   UNL     1       6.500 -31.665  24.227  1.00  0.00     0.145 A 
ATOM      2  C   UNL     1       7.703 -31.153  23.728  1.00  0.00     0.048 A 
ATOM      3  C   UNL     1       8.157 -31.557  22.474  1.00  0.00     0.004 A 
ATOM      4  C   UNL     1       7.419 -32.478  21.730  1.00  0.00     0.001 A 
ATOM      5  C   UNL     1       6.226 -33.001  22.240  1.00  0.00     0.019 A 
ATOM      6  C   UNL     1       5.755 -32.605  23.501  1.00  0.00     0.102 A 
ENDROOT
BRANCH   1   7
ATOM      7  O   UNL     1       6.117 -31.240  25.502  1.00  0.00    -0.426 OA
BRANCH   7   8
ATOM      8  C   UNL     1       6.899 -31.798  26.508  1.00  0.00     0.308 C 
ATOM      9  O   UNL     1       7.039 -32.990  26.749  1.00  0.00    -0.252 OA
ATOM     10  C   UNL     1       7.542 -30.693  27.292  1.00  0.00     0.139 C 
ENDBRANCH   7   8
ENDBRANCH   1   7
BRANCH   6  11
ATOM     11  C   UNL     1       4.504 -33.180  24.062  1.00  0.00     0.339 C 
ATOM     12  O   UNL     1       4.273 -34.351  24.295  1.00  0.00    -0.246 OA
BRANCH  11  13
ATOM     13  O   UNL     1       3.570 -32.240  24.310  1.00  0.00    -0.478 OA
ATOM     14  H   UNL     1       4.095 -31.442  24.529  1.00  0.00     0.297 HD
ENDBRANCH  11  13
ENDBRANCH   6  11
TORSDOF 4
ENDMDL
