MODEL 1
REMARK VINA RESULT:    -6.967      0.000      0.000
REMARK INTER + INTRA:          -9.659
REMARK INTER:                  -9.004
REMARK INTRA:                  -0.655
REMARK UNBOUND:                -0.655
REMARK SMILES Cc1ccc(-c2cc(COc3cc(C(C)C)ccc3C)on2)cc1
REMARK SMILES IDX 9 1 8 2 6 3 7 4 22 5 21 6 5 7 2 8 3 9 24 10 4 11 23 12 1 13
REMARK SMILES IDX 10 14 11 15 12 16 19 17 13 18 18 19 17 20 20 21 14 22 15 23
REMARK SMILES IDX 16 24
REMARK H PARENT
ROOT
ATOM      1  C   UNL     1       7.465 -29.130  22.064  1.00  0.00     0.307 C 
ENDROOT
BRANCH   1   2
ATOM      2  C   UNL     1       8.710 -28.333  22.161  1.00  0.00     0.174 A 
ATOM      3  C   UNL     1      10.428 -26.937  22.349  1.00  0.00     0.114 A 
ATOM      4  C   UNL     1       9.008 -27.010  22.384  1.00  0.00     0.081 A 
ATOM      5  N   UNL     1      10.938 -28.160  22.117  1.00  0.00    -0.079 NA
ATOM      6  O   UNL     1       9.868 -29.021  22.001  1.00  0.00    -0.357 OA
BRANCH   3   7
ATOM      7  C   UNL     1      11.289 -25.761  22.526  1.00  0.00     0.004 A 
ATOM      8  C   UNL     1      12.941 -23.486  22.853  1.00  0.00    -0.051 A 
ATOM      9  C   UNL     1      11.617 -23.347  22.427  1.00  0.00     0.004 A 
ATOM     10  C   UNL     1      13.429 -24.765  23.134  1.00  0.00     0.004 A 
ATOM     11  C   UNL     1      10.803 -24.472  22.262  1.00  0.00     0.011 A 
ATOM     12  C   UNL     1      12.614 -25.891  22.967  1.00  0.00     0.011 A 
ATOM     13  C   UNL     1      13.804 -22.278  23.063  1.00  0.00     0.044 C 
ENDBRANCH   3   7
ENDBRANCH   1   2
BRANCH   1  14
ATOM     14  O   UNL     1       7.835 -30.505  22.137  1.00  0.00    -0.485 OA
BRANCH  14  15
ATOM     15  C   UNL     1       7.105 -31.316  22.968  1.00  0.00     0.123 A 
ATOM     16  C   UNL     1       7.096 -31.232  24.366  1.00  0.00     0.050 A 
ATOM     17  C   UNL     1       6.322 -32.289  22.325  1.00  0.00    -0.009 A 
ATOM     18  C   UNL     1       6.315 -32.106  25.141  1.00  0.00    -0.042 A 
ATOM     19  C   UNL     1       5.542 -33.161  23.095  1.00  0.00     0.007 A 
ATOM     20  C   UNL     1       5.539 -33.071  24.488  1.00  0.00     0.004 A 
ATOM     21  C   UNL     1       6.309 -32.404  20.826  1.00  0.00     0.048 C 
BRANCH  18  22
ATOM     22  C   UNL     1       6.328 -31.989  26.656  1.00  0.00     0.013 C 
ATOM     23  C   UNL     1       5.554 -33.135  27.315  1.00  0.00     0.012 C 
ATOM     24  C   UNL     1       7.755 -31.908  27.203  1.00  0.00     0.012 C 
ENDBRANCH  18  22
ENDBRANCH  14  15
ENDBRANCH   1  14
TORSDOF 5
ENDMDL
MODEL 2
REMARK VINA RESULT:    -6.932      1.718      8.672
REMARK INTER + INTRA:          -9.613
REMARK INTER:                  -8.945
REMARK INTRA:                  -0.668
REMARK UNBOUND:                -0.655
REMARK SMILES Cc1ccc(-c2cc(COc3cc(C(C)C)ccc3C)on2)cc1
REMARK SMILES IDX 9 1 8 2 6 3 7 4 22 5 21 6 5 7 2 8 3 9 24 10 4 11 23 12 1 13
REMARK SMILES IDX 10 14 11 15 12 16 19 17 13 18 18 19 17 20 20 21 14 22 15 23
REMARK SMILES IDX 16 24
REMARK H PARENT
ROOT
ATOM      1  C   UNL     1       9.037 -27.313  22.080  1.00  0.00     0.307 C 
ENDROOT
BRANCH   1   2
ATOM      2  C   UNL     1       8.603 -28.559  22.752  1.00  0.00     0.174 A 
ATOM      3  C   UNL     1       7.834 -30.281  23.927  1.00  0.00     0.114 A 
ATOM      4  C   UNL     1       7.847 -28.860  23.859  1.00  0.00     0.081 A 
ATOM      5  N   UNL     1       8.547 -30.788  22.905  1.00  0.00    -0.079 NA
ATOM      6  O   UNL     1       9.022 -29.717  22.181  1.00  0.00    -0.357 OA
BRANCH   3   7
ATOM      7  C   UNL     1       7.175 -31.144  24.914  1.00  0.00     0.004 A 
ATOM      8  C   UNL     1       5.886 -32.808  26.807  1.00  0.00    -0.051 A 
ATOM      9  C   UNL     1       5.522 -32.853  25.458  1.00  0.00     0.004 A 
ATOM     10  C   UNL     1       6.910 -31.944  27.201  1.00  0.00     0.004 A 
ATOM     11  C   UNL     1       6.156 -32.027  24.524  1.00  0.00     0.011 A 
ATOM     12  C   UNL     1       7.544 -31.116  26.266  1.00  0.00     0.011 A 
ATOM     13  C   UNL     1       5.230 -33.718  27.802  1.00  0.00     0.044 C 
ENDBRANCH   3   7
ENDBRANCH   1   2
BRANCH   1  14
ATOM     14  O   UNL     1       9.490 -26.419  23.095  1.00  0.00    -0.485 OA
BRANCH  14  15
ATOM     15  C   UNL     1      10.819 -26.084  23.099  1.00  0.00     0.123 A 
ATOM     16  C   UNL     1      11.866 -26.948  22.753  1.00  0.00     0.050 A 
ATOM     17  C   UNL     1      11.108 -24.765  23.485  1.00  0.00    -0.009 A 
ATOM     18  C   UNL     1      13.203 -26.520  22.784  1.00  0.00    -0.042 A 
ATOM     19  C   UNL     1      12.440 -24.334  23.517  1.00  0.00     0.007 A 
ATOM     20  C   UNL     1      13.477 -25.202  23.171  1.00  0.00     0.004 A 
ATOM     21  C   UNL     1      10.007 -23.812  23.861  1.00  0.00     0.048 C 
BRANCH  18  22
ATOM     22  C   UNL     1      14.316 -27.482  22.404  1.00  0.00     0.013 C 
ATOM     23  C   UNL     1      14.376 -28.679  23.357  1.00  0.00     0.012 C 
ATOM     24  C   UNL     1      14.186 -27.947  20.951  1.00  0.00     0.012 C 
ENDBRANCH  18  22
ENDBRANCH  14  15
ENDBRANCH   1  14
TORSDOF 5
ENDMDL
MODEL 3
REMARK VINA RESULT:    -6.884      1.409      8.693
REMARK INTER + INTRA:          -9.551
REMARK INTER:                  -9.049
REMARK INTRA:                  -0.502
REMARK UNBOUND:                -0.655
REMARK SMILES Cc1ccc(-c2cc(COc3cc(C(C)C)ccc3C)on2)cc1
REMARK SMILES IDX 9 1 8 2 6 3 7 4 22 5 21 6 5 7 2 8 3 9 24 10 4 11 23 12 1 13
REMARK SMILES IDX 10 14 11 15 12 16 19 17 13 18 18 19 17 20 20 21 14 22 15 23
REMARK SMILES IDX 16 24
REMARK H PARENT
ROOT
ATOM      1  C   UNL     1       9.189 -26.792  20.946  1.00  0.00     0.307 C 
ENDROOT
BRANCH   1   2
ATOM      2  C   UNL     1       8.780 -28.038  21.634  1.00  0.00     0.174 A 
ATOM      3  C   UNL     1       7.928 -29.831  22.630  1.00  0.00     0.114 A 
ATOM      4  C   UNL     1       7.582 -28.617  21.975  1.00  0.00     0.081 A 
ATOM      5  N   UNL     1       9.268 -29.958  22.669  1.00  0.00    -0.079 NA
ATOM      6  O   UNL     1       9.790 -28.843  22.050  1.00  0.00    -0.357 OA
BRANCH   3   7
ATOM      7  C   UNL     1       7.039 -30.849  23.204  1.00  0.00     0.004 A 
ATOM      8  C   UNL     1       5.334 -32.808  24.328  1.00  0.00    -0.051 A 
ATOM      9  C   UNL     1       5.745 -31.708  25.084  1.00  0.00     0.004 A 
ATOM     10  C   UNL     1       5.761 -32.914  23.002  1.00  0.00     0.004 A 
ATOM     11  C   UNL     1       6.592 -30.742  24.529  1.00  0.00     0.011 A 
ATOM     12  C   UNL     1       6.609 -31.948  22.447  1.00  0.00     0.011 A 
ATOM     13  C   UNL     1       4.399 -33.826  24.911  1.00  0.00     0.044 C 
ENDBRANCH   3   7
ENDBRANCH   1   2
BRANCH   1  14
ATOM     14  O   UNL     1       9.354 -25.788  21.946  1.00  0.00    -0.485 OA
BRANCH  14  15
ATOM     15  C   UNL     1      10.633 -25.390  22.240  1.00  0.00     0.123 A 
ATOM     16  C   UNL     1      11.735 -26.246  22.350  1.00  0.00     0.050 A 
ATOM     17  C   UNL     1      10.803 -24.009  22.438  1.00  0.00    -0.009 A 
ATOM     18  C   UNL     1      13.014 -25.749  22.655  1.00  0.00    -0.042 A 
ATOM     19  C   UNL     1      12.076 -23.511  22.742  1.00  0.00     0.007 A 
ATOM     20  C   UNL     1      13.170 -24.371  22.849  1.00  0.00     0.004 A 
ATOM     21  C   UNL     1       9.639 -23.063  22.326  1.00  0.00     0.048 C 
BRANCH  18  22
ATOM     22  C   UNL     1      14.190 -26.705  22.768  1.00  0.00     0.013 C 
ATOM     23  C   UNL     1      14.211 -27.414  24.125  1.00  0.00     0.012 C 
ATOM     24  C   UNL     1      14.205 -27.718  21.621  1.00  0.00     0.012 C 
ENDBRANCH  18  22
ENDBRANCH  14  15
ENDBRANCH   1  14
TORSDOF 5
ENDMDL
MODEL 4
REMARK VINA RESULT:    -6.880      3.239      8.475
REMARK INTER + INTRA:          -9.546
REMARK INTER:                  -8.727
REMARK INTRA:                  -0.819
REMARK UNBOUND:                -0.655
REMARK SMILES Cc1ccc(-c2cc(COc3cc(C(C)C)ccc3C)on2)cc1
REMARK SMILES IDX 9 1 8 2 6 3 7 4 22 5 21 6 5 7 2 8 3 9 24 10 4 11 23 12 1 13
REMARK SMILES IDX 10 14 11 15 12 16 19 17 13 18 18 19 17 20 20 21 14 22 15 23
REMARK SMILES IDX 16 24
REMARK H PARENT
ROOT
ATOM      1  C   UNL     1       9.519 -26.464  20.896  1.00  0.00     0.307 C 
ENDROOT
BRANCH   1   2
ATOM      2  C   UNL     1       9.099 -27.719  21.560  1.00  0.00     0.174 A 
ATOM      3  C   UNL     1       8.233 -29.548  22.476  1.00  0.00     0.114 A 
ATOM      4  C   UNL     1       7.911 -28.391  21.715  1.00  0.00     0.081 A 
ATOM      5  N   UNL     1       9.550 -29.555  22.752  1.00  0.00    -0.079 NA
ATOM      6  O   UNL     1      10.081 -28.418  22.182  1.00  0.00    -0.357 OA
BRANCH   3   7
ATOM      7  C   UNL     1       7.343 -30.622  22.933  1.00  0.00     0.004 A 
ATOM      8  C   UNL     1       5.616 -32.691  23.798  1.00  0.00    -0.051 A 
ATOM      9  C   UNL     1       6.087 -32.663  22.483  1.00  0.00     0.004 A 
ATOM     10  C   UNL     1       6.029 -31.694  24.685  1.00  0.00     0.004 A 
ATOM     11  C   UNL     1       6.936 -31.637  22.055  1.00  0.00     0.011 A 
ATOM     12  C   UNL     1       6.879 -30.666  24.256  1.00  0.00     0.011 A 
ATOM     13  C   UNL     1       4.734 -33.810  24.266  1.00  0.00     0.044 C 
ENDBRANCH   3   7
ENDBRANCH   1   2
BRANCH   1  14
ATOM     14  O   UNL     1       8.656 -26.265  19.778  1.00  0.00    -0.485 OA
BRANCH  14  15
ATOM     15  C   UNL     1       7.613 -25.388  19.929  1.00  0.00     0.123 A 
ATOM     16  C   UNL     1       7.614 -24.278  20.783  1.00  0.00     0.050 A 
ATOM     17  C   UNL     1       6.478 -25.662  19.149  1.00  0.00    -0.009 A 
ATOM     18  C   UNL     1       6.498 -23.430  20.875  1.00  0.00    -0.042 A 
ATOM     19  C   UNL     1       5.362 -24.819  19.238  1.00  0.00     0.007 A 
ATOM     20  C   UNL     1       5.373 -23.715  20.092  1.00  0.00     0.004 A 
ATOM     21  C   UNL     1       6.444 -26.846  18.222  1.00  0.00     0.048 C 
BRANCH  18  22
ATOM     22  C   UNL     1       6.531 -22.234  21.812  1.00  0.00     0.013 C 
ATOM     23  C   UNL     1       7.830 -21.437  21.662  1.00  0.00     0.012 C 
ATOM     24  C   UNL     1       5.311 -21.331  21.616  1.00  0.00     0.012 C 
ENDBRANCH  18  22
ENDBRANCH  14  15
ENDBRANCH   1  14
TORSDOF 5
ENDMDL
MODEL 5
REMARK VINA RESULT:    -6.870      5.171      7.930
REMARK INTER + INTRA:          -9.533
REMARK INTER:                  -8.798
REMARK INTRA:                  -0.735
REMARK UNBOUND:                -0.655
REMARK SMILES Cc1ccc(-c2cc(COc3cc(C(C)C)ccc3C)on2)cc1
REMARK SMILES IDX 9 1 8 2 6 3 7 4 22 5 21 6 5 7 2 8 3 9 24 10 4 11 23 12 1 13
REMARK SMILES IDX 10 14 11 15 12 16 19 17 13 18 18 19 17 20 20 21 14 22 15 23
REMARK SMILES IDX 16 24
REMARK H PARENT
ROOT
ATOM      1  C   UNL     1      11.185 -22.972  22.501  1.00  0.00     0.307 C 
ENDROOT
BRANCH   1   2
ATOM      2  C   UNL     1       9.909 -23.417  21.895  1.00  0.00     0.174 A 
ATOM      3  C   UNL     1       7.884 -23.903  21.121  1.00  0.00     0.114 A 
ATOM      4  C   UNL     1       8.594 -23.030  21.991  1.00  0.00     0.081 A 
ATOM      5  N   UNL     1       8.744 -24.760  20.540  1.00  0.00    -0.079 NA
ATOM      6  O   UNL     1       9.997 -24.455  21.024  1.00  0.00    -0.357 OA
BRANCH   3   7
ATOM      7  C   UNL     1       6.445 -23.938  20.834  1.00  0.00     0.004 A 
ATOM      8  C   UNL     1       3.673 -24.022  20.267  1.00  0.00    -0.051 A 
ATOM      9  C   UNL     1       4.437 -25.192  20.247  1.00  0.00     0.004 A 
ATOM     10  C   UNL     1       4.296 -22.814  20.592  1.00  0.00     0.004 A 
ATOM     11  C   UNL     1       5.808 -25.148  20.522  1.00  0.00     0.011 A 
ATOM     12  C   UNL     1       5.668 -22.771  20.867  1.00  0.00     0.011 A 
ATOM     13  C   UNL     1       2.197 -24.072  20.005  1.00  0.00     0.044 C 
ENDBRANCH   3   7
ENDBRANCH   1   2
BRANCH   1  14
ATOM     14  O   UNL     1      11.289 -23.598  23.779  1.00  0.00    -0.485 OA
BRANCH  14  15
ATOM     15  C   UNL     1      11.562 -24.941  23.807  1.00  0.00     0.123 A 
ATOM     16  C   UNL     1      12.736 -25.533  23.324  1.00  0.00     0.050 A 
ATOM     17  C   UNL     1      10.560 -25.748  24.373  1.00  0.00    -0.009 A 
ATOM     18  C   UNL     1      12.932 -26.922  23.394  1.00  0.00    -0.042 A 
ATOM     19  C   UNL     1      10.752 -27.134  24.445  1.00  0.00     0.007 A 
ATOM     20  C   UNL     1      11.926 -27.714  23.961  1.00  0.00     0.004 A 
ATOM     21  C   UNL     1       9.288 -25.144  24.902  1.00  0.00     0.048 C 
BRANCH  18  22
ATOM     22  C   UNL     1      14.217 -27.533  22.861  1.00  0.00     0.013 C 
ATOM     23  C   UNL     1      14.554 -28.847  23.572  1.00  0.00     0.012 C 
ATOM     24  C   UNL     1      14.159 -27.733  21.344  1.00  0.00     0.012 C 
ENDBRANCH  18  22
ENDBRANCH  14  15
ENDBRANCH   1  14
TORSDOF 5
ENDMDL
MODEL 6
REMARK VINA RESULT:    -6.831      4.255      6.357
REMARK INTER + INTRA:          -9.483
REMARK INTER:                  -8.653
REMARK INTRA:                  -0.830
REMARK UNBOUND:                -0.655
REMARK SMILES Cc1ccc(-c2cc(COc3cc(C(C)C)ccc3C)on2)cc1
REMARK SMILES IDX 9 1 8 2 6 3 7 4 22 5 21 6 5 7 2 8 3 9 24 10 4 11 23 12 1 13
REMARK SMILES IDX 10 14 11 15 12 16 19 17 13 18 18 19 17 20 20 21 14 22 15 23
REMARK SMILES IDX 16 24
REMARK H PARENT
ROOT
ATOM      1  C   UNL     1       7.455 -26.057  19.316  1.00  0.00     0.307 C 
ENDROOT
BRANCH   1   2
ATOM      2  C   UNL     1       8.644 -25.983  20.197  1.00  0.00     0.174 A 
ATOM      3  C   UNL     1      10.418 -26.125  21.526  1.00  0.00     0.114 A 
ATOM      4  C   UNL     1       9.439 -26.898  20.843  1.00  0.00     0.081 A 
ATOM      5  N   UNL     1      10.207 -24.818  21.288  1.00  0.00    -0.079 NA
ATOM      6  O   UNL     1       9.106 -24.736  20.464  1.00  0.00    -0.357 OA
BRANCH   3   7
ATOM      7  C   UNL     1      11.522 -26.588  22.375  1.00  0.00     0.004 A 
ATOM      8  C   UNL     1      13.647 -27.500  24.007  1.00  0.00    -0.051 A 
ATOM      9  C   UNL     1      13.414 -28.078  22.756  1.00  0.00     0.004 A 
ATOM     10  C   UNL     1      12.827 -26.450  24.429  1.00  0.00     0.004 A 
ATOM     11  C   UNL     1      12.360 -27.630  21.953  1.00  0.00     0.011 A 
ATOM     12  C   UNL     1      11.772 -26.003  23.625  1.00  0.00     0.011 A 
ATOM     13  C   UNL     1      14.798 -27.957  24.854  1.00  0.00     0.044 C 
ENDBRANCH   3   7
ENDBRANCH   1   2
BRANCH   1  14
ATOM     14  O   UNL     1       6.472 -26.838  19.994  1.00  0.00    -0.485 OA
BRANCH  14  15
ATOM     15  C   UNL     1       5.531 -26.169  20.735  1.00  0.00     0.123 A 
ATOM     16  C   UNL     1       4.654 -25.201  20.233  1.00  0.00     0.050 A 
ATOM     17  C   UNL     1       5.479 -26.515  22.095  1.00  0.00    -0.009 A 
ATOM     18  C   UNL     1       3.718 -24.565  21.067  1.00  0.00    -0.042 A 
ATOM     19  C   UNL     1       4.548 -25.884  22.930  1.00  0.00     0.007 A 
ATOM     20  C   UNL     1       3.676 -24.919  22.421  1.00  0.00     0.004 A 
ATOM     21  C   UNL     1       6.407 -27.552  22.666  1.00  0.00     0.048 C 
BRANCH  18  22
ATOM     22  C   UNL     1       2.780 -23.518  20.491  1.00  0.00     0.013 C 
ATOM     23  C   UNL     1       1.408 -24.112  20.161  1.00  0.00     0.012 C 
ATOM     24  C   UNL     1       2.643 -22.311  21.422  1.00  0.00     0.012 C 
ENDBRANCH  18  22
ENDBRANCH  14  15
ENDBRANCH   1  14
TORSDOF 5
ENDMDL
MODEL 7
REMARK VINA RESULT:    -6.825      1.631      8.877
REMARK INTER + INTRA:          -9.475
REMARK INTER:                  -8.855
REMARK INTRA:                  -0.620
REMARK UNBOUND:                -0.655
REMARK SMILES Cc1ccc(-c2cc(COc3cc(C(C)C)ccc3C)on2)cc1
REMARK SMILES IDX 9 1 8 2 6 3 7 4 22 5 21 6 5 7 2 8 3 9 24 10 4 11 23 12 1 13
REMARK SMILES IDX 10 14 11 15 12 16 19 17 13 18 18 19 17 20 20 21 14 22 15 23
REMARK SMILES IDX 16 24
REMARK H PARENT
ROOT
ATOM      1  C   UNL     1       9.820 -28.068  22.008  1.00  0.00     0.307 C 
ENDROOT
BRANCH   1   2
ATOM      2  C   UNL     1       9.075 -29.182  22.637  1.00  0.00     0.174 A 
ATOM      3  C   UNL     1       7.953 -30.713  23.792  1.00  0.00     0.114 A 
ATOM      4  C   UNL     1       8.544 -29.423  23.881  1.00  0.00     0.081 A 
ATOM      5  N   UNL     1       8.128 -31.205  22.551  1.00  0.00    -0.079 NA
ATOM      6  O   UNL     1       8.824 -30.251  21.841  1.00  0.00    -0.357 OA
BRANCH   3   7
ATOM      7  C   UNL     1       7.243 -31.470  24.830  1.00  0.00     0.004 A 
ATOM      8  C   UNL     1       5.857 -32.927  26.822  1.00  0.00    -0.051 A 
ATOM      9  C   UNL     1       5.506 -33.055  25.475  1.00  0.00     0.004 A 
ATOM     10  C   UNL     1       6.916 -32.084  27.166  1.00  0.00     0.004 A 
ATOM     11  C   UNL     1       6.189 -32.331  24.492  1.00  0.00     0.011 A 
ATOM     12  C   UNL     1       7.599 -31.359  26.182  1.00  0.00     0.011 A 
ATOM     13  C   UNL     1       5.148 -33.728  27.872  1.00  0.00     0.044 C 
ENDBRANCH   3   7
ENDBRANCH   1   2
BRANCH   1  14
ATOM     14  O   UNL     1      11.173 -28.156  22.453  1.00  0.00    -0.485 OA
BRANCH  14  15
ATOM     15  C   UNL     1      11.846 -26.983  22.674  1.00  0.00     0.123 A 
ATOM     16  C   UNL     1      11.247 -25.722  22.790  1.00  0.00     0.050 A 
ATOM     17  C   UNL     1      13.242 -27.102  22.786  1.00  0.00    -0.009 A 
ATOM     18  C   UNL     1      12.018 -24.570  23.018  1.00  0.00    -0.042 A 
ATOM     19  C   UNL     1      14.013 -25.954  23.013  1.00  0.00     0.007 A 
ATOM     20  C   UNL     1      13.407 -24.702  23.128  1.00  0.00     0.004 A 
ATOM     21  C   UNL     1      13.916 -28.441  22.667  1.00  0.00     0.048 C 
BRANCH  18  22
ATOM     22  C   UNL     1      11.337 -23.216  23.139  1.00  0.00     0.013 C 
ATOM     23  C   UNL     1      10.256 -23.225  24.223  1.00  0.00     0.012 C 
ATOM     24  C   UNL     1      12.350 -22.096  23.387  1.00  0.00     0.012 C 
ENDBRANCH  18  22
ENDBRANCH  14  15
ENDBRANCH   1  14
TORSDOF 5
ENDMDL
MODEL 8
REMARK VINA RESULT:    -6.650      1.865      3.640
REMARK INTER + INTRA:          -9.248
REMARK INTER:                  -8.503
REMARK INTRA:                  -0.745
REMARK UNBOUND:                -0.655
REMARK SMILES Cc1ccc(-c2cc(COc3cc(C(C)C)ccc3C)on2)cc1
REMARK SMILES IDX 9 1 8 2 6 3 7 4 22 5 21 6 5 7 2 8 3 9 24 10 4 11 23 12 1 13
REMARK SMILES IDX 10 14 11 15 12 16 19 17 13 18 18 19 17 20 20 21 14 22 15 23
REMARK SMILES IDX 16 24
REMARK H PARENT
ROOT
ATOM      1  C   UNL     1       9.549 -27.598  21.354  1.00  0.00     0.307 C 
ENDROOT
BRANCH   1   2
ATOM      2  C   UNL     1      10.016 -26.218  21.622  1.00  0.00     0.174 A 
ATOM      3  C   UNL     1      10.860 -24.248  22.206  1.00  0.00     0.114 A 
ATOM      4  C   UNL     1      10.891 -25.637  22.508  1.00  0.00     0.081 A 
ATOM      5  N   UNL     1      10.008 -24.025  21.189  1.00  0.00    -0.079 NA
ATOM      6  O   UNL     1       9.487 -25.250  20.831  1.00  0.00    -0.357 OA
BRANCH   3   7
ATOM      7  C   UNL     1      11.604 -23.155  22.844  1.00  0.00     0.004 A 
ATOM      8  C   UNL     1      13.023 -21.035  24.070  1.00  0.00    -0.051 A 
ATOM      9  C   UNL     1      11.628 -21.083  24.130  1.00  0.00     0.004 A 
ATOM     10  C   UNL     1      13.707 -22.062  23.413  1.00  0.00     0.004 A 
ATOM     11  C   UNL     1      10.927 -22.129  23.520  1.00  0.00     0.011 A 
ATOM     12  C   UNL     1      13.005 -23.108  22.802  1.00  0.00     0.011 A 
ATOM     13  C   UNL     1      13.777 -19.933  24.752  1.00  0.00     0.044 C 
ENDBRANCH   3   7
ENDBRANCH   1   2
BRANCH   1  14
ATOM     14  O   UNL     1       9.894 -28.391  22.489  1.00  0.00    -0.485 OA
BRANCH  14  15
ATOM     15  C   UNL     1       8.921 -29.200  23.017  1.00  0.00     0.123 A 
ATOM     16  C   UNL     1       8.398 -30.339  22.391  1.00  0.00     0.050 A 
ATOM     17  C   UNL     1       8.444 -28.822  24.282  1.00  0.00    -0.009 A 
ATOM     18  C   UNL     1       7.400 -31.113  23.008  1.00  0.00    -0.042 A 
ATOM     19  C   UNL     1       7.449 -29.592  24.900  1.00  0.00     0.007 A 
ATOM     20  C   UNL     1       6.933 -30.725  24.269  1.00  0.00     0.004 A 
ATOM     21  C   UNL     1       8.985 -27.606  24.981  1.00  0.00     0.048 C 
BRANCH  18  22
ATOM     22  C   UNL     1       6.853 -32.343  22.302  1.00  0.00     0.013 C 
ATOM     23  C   UNL     1       5.743 -33.012  23.118  1.00  0.00     0.012 C 
ATOM     24  C   UNL     1       6.369 -32.012  20.888  1.00  0.00     0.012 C 
ENDBRANCH  18  22
ENDBRANCH  14  15
ENDBRANCH   1  14
TORSDOF 5
ENDMDL
