MODEL 1
REMARK VINA RESULT:    -6.947      0.000      0.000
REMARK INTER + INTRA:          -9.620
REMARK INTER:                  -8.978
REMARK INTRA:                  -0.642
REMARK UNBOUND:                -0.642
REMARK SMILES Cc1ccc(-c2cc(COc3cc(C(C)C)ccc3C)on2)cc1
REMARK SMILES IDX 9 1 8 2 6 3 7 4 22 5 21 6 5 7 2 8 3 9 24 10 4 11 23 12 1 13
REMARK SMILES IDX 10 14 11 15 12 16 19 17 13 18 18 19 17 20 20 21 14 22 15 23
REMARK SMILES IDX 16 24
REMARK H PARENT
ROOT
ATOM      1  C   UNL     1       7.474 -29.126  22.054  1.00  0.00     0.307 C 
ENDROOT
BRANCH   1   2
ATOM      2  C   UNL     1       8.713 -28.320  22.153  1.00  0.00     0.174 A 
ATOM      3  C   UNL     1      10.420 -26.912  22.342  1.00  0.00     0.114 A 
ATOM      4  C   UNL     1       9.001 -26.997  22.383  1.00  0.00     0.081 A 
ATOM      5  N   UNL     1      10.939 -28.130  22.101  1.00  0.00    -0.079 NA
ATOM      6  O   UNL     1       9.876 -28.998  21.984  1.00  0.00    -0.357 OA
BRANCH   3   7
ATOM      7  C   UNL     1      11.273 -25.731  22.524  1.00  0.00     0.004 A 
ATOM      8  C   UNL     1      12.925 -23.462  22.891  1.00  0.00    -0.051 A 
ATOM      9  C   UNL     1      13.408 -24.744  23.168  1.00  0.00     0.004 A 
ATOM     10  C   UNL     1      11.621 -23.321  22.410  1.00  0.00     0.004 A 
ATOM     11  C   UNL     1      12.589 -25.864  22.991  1.00  0.00     0.011 A 
ATOM     12  C   UNL     1      10.801 -24.442  22.233  1.00  0.00     0.011 A 
ATOM     13  C   UNL     1      13.814 -22.264  23.048  1.00  0.00     0.044 C 
ENDBRANCH   3   7
ENDBRANCH   1   2
BRANCH   1  14
ATOM     14  O   UNL     1       7.849 -30.497  22.172  1.00  0.00    -0.485 OA
BRANCH  14  15
ATOM     15  C   UNL     1       7.111 -31.287  23.015  1.00  0.00     0.123 A 
ATOM     16  C   UNL     1       7.116 -31.194  24.413  1.00  0.00     0.050 A 
ATOM     17  C   UNL     1       6.302 -32.248  22.386  1.00  0.00    -0.009 A 
ATOM     18  C   UNL     1       6.324 -32.047  25.201  1.00  0.00    -0.042 A 
ATOM     19  C   UNL     1       5.512 -33.100  23.169  1.00  0.00     0.007 A 
ATOM     20  C   UNL     1       5.523 -33.000  24.561  1.00  0.00     0.004 A 
ATOM     21  C   UNL     1       6.273 -32.373  20.888  1.00  0.00     0.048 C 
BRANCH  18  22
ATOM     22  C   UNL     1       6.352 -31.921  26.715  1.00  0.00     0.013 C 
ATOM     23  C   UNL     1       5.578 -33.057  27.389  1.00  0.00     0.012 C 
ATOM     24  C   UNL     1       7.786 -31.846  27.247  1.00  0.00     0.012 C 
ENDBRANCH  18  22
ENDBRANCH  14  15
ENDBRANCH   1  14
TORSDOF 5
ENDMDL
MODEL 2
REMARK VINA RESULT:    -6.933      3.241      8.481
REMARK INTER + INTRA:          -9.601
REMARK INTER:                  -8.784
REMARK INTRA:                  -0.817
REMARK UNBOUND:                -0.642
REMARK SMILES Cc1ccc(-c2cc(COc3cc(C(C)C)ccc3C)on2)cc1
REMARK SMILES IDX 9 1 8 2 6 3 7 4 22 5 21 6 5 7 2 8 3 9 24 10 4 11 23 12 1 13
REMARK SMILES IDX 10 14 11 15 12 16 19 17 13 18 18 19 17 20 20 21 14 22 15 23
REMARK SMILES IDX 16 24
REMARK H PARENT
ROOT
ATOM      1  C   UNL     1       9.458 -26.503  20.873  1.00  0.00     0.307 C 
ENDROOT
BRANCH   1   2
ATOM      2  C   UNL     1       9.047 -27.757  21.546  1.00  0.00     0.174 A 
ATOM      3  C   UNL     1       8.195 -29.585  22.477  1.00  0.00     0.114 A 
ATOM      4  C   UNL     1       7.862 -28.432  21.715  1.00  0.00     0.081 A 
ATOM      5  N   UNL     1       9.515 -29.587  22.740  1.00  0.00    -0.079 NA
ATOM      6  O   UNL     1      10.037 -28.451  22.161  1.00  0.00    -0.357 OA
BRANCH   3   7
ATOM      7  C   UNL     1       7.312 -30.659  22.947  1.00  0.00     0.004 A 
ATOM      8  C   UNL     1       5.619 -32.731  23.871  1.00  0.00    -0.051 A 
ATOM      9  C   UNL     1       6.056 -31.729  24.742  1.00  0.00     0.004 A 
ATOM     10  C   UNL     1       6.014 -32.680  22.532  1.00  0.00     0.004 A 
ATOM     11  C   UNL     1       6.897 -30.709  24.285  1.00  0.00     0.011 A 
ATOM     12  C   UNL     1       6.857 -31.659  22.075  1.00  0.00     0.011 A 
ATOM     13  C   UNL     1       4.690 -33.805  24.351  1.00  0.00     0.044 C 
ENDBRANCH   3   7
ENDBRANCH   1   2
BRANCH   1  14
ATOM     14  O   UNL     1       8.587 -26.313  19.759  1.00  0.00    -0.485 OA
BRANCH  14  15
ATOM     15  C   UNL     1       7.557 -25.420  19.905  1.00  0.00     0.123 A 
ATOM     16  C   UNL     1       7.572 -24.309  20.758  1.00  0.00     0.050 A 
ATOM     17  C   UNL     1       6.421 -25.677  19.119  1.00  0.00    -0.009 A 
ATOM     18  C   UNL     1       6.468 -23.443  20.843  1.00  0.00    -0.042 A 
ATOM     19  C   UNL     1       5.319 -24.816  19.202  1.00  0.00     0.007 A 
ATOM     20  C   UNL     1       5.343 -23.711  20.054  1.00  0.00     0.004 A 
ATOM     21  C   UNL     1       6.374 -26.861  18.193  1.00  0.00     0.048 C 
BRANCH  18  22
ATOM     22  C   UNL     1       6.516 -22.247  21.779  1.00  0.00     0.013 C 
ATOM     23  C   UNL     1       7.830 -21.474  21.638  1.00  0.00     0.012 C 
ATOM     24  C   UNL     1       5.314 -21.322  21.572  1.00  0.00     0.012 C 
ENDBRANCH  18  22
ENDBRANCH  14  15
ENDBRANCH   1  14
TORSDOF 5
ENDMDL
MODEL 3
REMARK VINA RESULT:    -6.910      1.421      8.713
REMARK INTER + INTRA:          -9.572
REMARK INTER:                  -9.058
REMARK INTRA:                  -0.514
REMARK UNBOUND:                -0.642
REMARK SMILES Cc1ccc(-c2cc(COc3cc(C(C)C)ccc3C)on2)cc1
REMARK SMILES IDX 9 1 8 2 6 3 7 4 22 5 21 6 5 7 2 8 3 9 24 10 4 11 23 12 1 13
REMARK SMILES IDX 10 14 11 15 12 16 19 17 13 18 18 19 17 20 20 21 14 22 15 23
REMARK SMILES IDX 16 24
REMARK H PARENT
ROOT
ATOM      1  C   UNL     1       9.235 -26.872  20.967  1.00  0.00     0.307 C 
ENDROOT
BRANCH   1   2
ATOM      2  C   UNL     1       8.800 -28.114  21.648  1.00  0.00     0.174 A 
ATOM      3  C   UNL     1       7.911 -29.905  22.615  1.00  0.00     0.114 A 
ATOM      4  C   UNL     1       7.592 -28.711  21.912  1.00  0.00     0.081 A 
ATOM      5  N   UNL     1       9.246 -30.003  22.755  1.00  0.00    -0.079 NA
ATOM      6  O   UNL     1       9.792 -28.890  22.154  1.00  0.00    -0.357 OA
BRANCH   3   7
ATOM      7  C   UNL     1       7.002 -30.930  23.142  1.00  0.00     0.004 A 
ATOM      8  C   UNL     1       5.238 -32.905  24.140  1.00  0.00    -0.051 A 
ATOM      9  C   UNL     1       5.650 -32.931  22.805  1.00  0.00     0.004 A 
ATOM     10  C   UNL     1       5.727 -31.901  24.979  1.00  0.00     0.004 A 
ATOM     11  C   UNL     1       6.518 -31.951  22.312  1.00  0.00     0.011 A 
ATOM     12  C   UNL     1       6.596 -30.920  24.484  1.00  0.00     0.011 A 
ATOM     13  C   UNL     1       4.334 -33.974  24.678  1.00  0.00     0.044 C 
ENDBRANCH   3   7
ENDBRANCH   1   2
BRANCH   1  14
ATOM     14  O   UNL     1       9.409 -25.875  21.971  1.00  0.00    -0.485 OA
BRANCH  14  15
ATOM     15  C   UNL     1      10.689 -25.468  22.247  1.00  0.00     0.123 A 
ATOM     16  C   UNL     1      11.790 -26.322  22.389  1.00  0.00     0.050 A 
ATOM     17  C   UNL     1      10.864 -24.082  22.389  1.00  0.00    -0.009 A 
ATOM     18  C   UNL     1      13.071 -25.817  22.671  1.00  0.00    -0.042 A 
ATOM     19  C   UNL     1      12.139 -23.575  22.671  1.00  0.00     0.007 A 
ATOM     20  C   UNL     1      13.230 -24.433  22.810  1.00  0.00     0.004 A 
ATOM     21  C   UNL     1       9.702 -23.138  22.242  1.00  0.00     0.048 C 
BRANCH  18  22
ATOM     22  C   UNL     1      14.245 -26.771  22.819  1.00  0.00     0.013 C 
ATOM     23  C   UNL     1      14.266 -27.426  24.203  1.00  0.00     0.012 C 
ATOM     24  C   UNL     1      14.254 -27.829  21.713  1.00  0.00     0.012 C 
ENDBRANCH  18  22
ENDBRANCH  14  15
ENDBRANCH   1  14
TORSDOF 5
ENDMDL
MODEL 4
REMARK VINA RESULT:    -6.829      1.735      3.371
REMARK INTER + INTRA:          -9.467
REMARK INTER:                  -8.738
REMARK INTRA:                  -0.729
REMARK UNBOUND:                -0.642
REMARK SMILES Cc1ccc(-c2cc(COc3cc(C(C)C)ccc3C)on2)cc1
REMARK SMILES IDX 9 1 8 2 6 3 7 4 22 5 21 6 5 7 2 8 3 9 24 10 4 11 23 12 1 13
REMARK SMILES IDX 10 14 11 15 12 16 19 17 13 18 18 19 17 20 20 21 14 22 15 23
REMARK SMILES IDX 16 24
REMARK H PARENT
ROOT
ATOM      1  C   UNL     1       9.252 -27.931  21.242  1.00  0.00     0.307 C 
ENDROOT
BRANCH   1   2
ATOM      2  C   UNL     1       9.748 -26.556  21.481  1.00  0.00     0.174 A 
ATOM      3  C   UNL     1      10.642 -24.594  22.019  1.00  0.00     0.114 A 
ATOM      4  C   UNL     1      10.663 -25.982  22.330  1.00  0.00     0.081 A 
ATOM      5  N   UNL     1       9.756 -24.367  21.032  1.00  0.00    -0.079 NA
ATOM      6  O   UNL     1       9.205 -25.586  20.703  1.00  0.00    -0.357 OA
BRANCH   3   7
ATOM      7  C   UNL     1      11.424 -23.508  22.621  1.00  0.00     0.004 A 
ATOM      8  C   UNL     1      12.945 -21.426  23.789  1.00  0.00    -0.051 A 
ATOM      9  C   UNL     1      13.578 -22.539  23.228  1.00  0.00     0.004 A 
ATOM     10  C   UNL     1      11.551 -21.349  23.746  1.00  0.00     0.004 A 
ATOM     11  C   UNL     1      12.824 -23.569  22.655  1.00  0.00     0.011 A 
ATOM     12  C   UNL     1      10.797 -22.381  23.173  1.00  0.00     0.011 A 
ATOM     13  C   UNL     1      13.753 -20.306  24.373  1.00  0.00     0.044 C 
ENDBRANCH   3   7
ENDBRANCH   1   2
BRANCH   1  14
ATOM     14  O   UNL     1       9.675 -28.733  22.343  1.00  0.00    -0.485 OA
BRANCH  14  15
ATOM     15  C   UNL     1       8.734 -29.525  22.949  1.00  0.00     0.123 A 
ATOM     16  C   UNL     1       8.153 -30.663  22.377  1.00  0.00     0.050 A 
ATOM     17  C   UNL     1       8.355 -29.127  24.242  1.00  0.00    -0.009 A 
ATOM     18  C   UNL     1       7.194 -31.418  23.074  1.00  0.00    -0.042 A 
ATOM     19  C   UNL     1       7.399 -29.877  24.939  1.00  0.00     0.007 A 
ATOM     20  C   UNL     1       6.825 -31.011  24.361  1.00  0.00     0.004 A 
ATOM     21  C   UNL     1       8.961 -27.910  24.885  1.00  0.00     0.048 C 
BRANCH  18  22
ATOM     22  C   UNL     1       6.582 -32.648  22.424  1.00  0.00     0.013 C 
ATOM     23  C   UNL     1       5.283 -33.064  23.119  1.00  0.00     0.012 C 
ATOM     24  C   UNL     1       6.357 -32.440  20.924  1.00  0.00     0.012 C 
ENDBRANCH  18  22
ENDBRANCH  14  15
ENDBRANCH   1  14
TORSDOF 5
ENDMDL
MODEL 5
REMARK VINA RESULT:    -6.790      1.668      8.677
REMARK INTER + INTRA:          -9.416
REMARK INTER:                  -8.749
REMARK INTRA:                  -0.667
REMARK UNBOUND:                -0.642
REMARK SMILES Cc1ccc(-c2cc(COc3cc(C(C)C)ccc3C)on2)cc1
REMARK SMILES IDX 9 1 8 2 6 3 7 4 22 5 21 6 5 7 2 8 3 9 24 10 4 11 23 12 1 13
REMARK SMILES IDX 10 14 11 15 12 16 19 17 13 18 18 19 17 20 20 21 14 22 15 23
REMARK SMILES IDX 16 24
REMARK H PARENT
ROOT
ATOM      1  C   UNL     1       9.003 -27.526  22.036  1.00  0.00     0.307 C 
ENDROOT
BRANCH   1   2
ATOM      2  C   UNL     1       8.557 -28.754  22.733  1.00  0.00     0.174 A 
ATOM      3  C   UNL     1       7.778 -30.443  23.948  1.00  0.00     0.114 A 
ATOM      4  C   UNL     1       7.828 -29.024  23.865  1.00  0.00     0.081 A 
ATOM      5  N   UNL     1       8.446 -30.979  22.910  1.00  0.00    -0.079 NA
ATOM      6  O   UNL     1       8.927 -29.927  22.161  1.00  0.00    -0.357 OA
BRANCH   3   7
ATOM      7  C   UNL     1       7.126 -31.279  24.962  1.00  0.00     0.004 A 
ATOM      8  C   UNL     1       5.886 -32.894  26.929  1.00  0.00    -0.051 A 
ATOM      9  C   UNL     1       6.855 -31.954  27.290  1.00  0.00     0.004 A 
ATOM     10  C   UNL     1       5.524 -33.008  25.585  1.00  0.00     0.004 A 
ATOM     11  C   UNL     1       7.471 -31.160  26.317  1.00  0.00     0.011 A 
ATOM     12  C   UNL     1       6.141 -32.213  24.610  1.00  0.00     0.011 A 
ATOM     13  C   UNL     1       5.201 -33.721  27.976  1.00  0.00     0.044 C 
ENDBRANCH   3   7
ENDBRANCH   1   2
BRANCH   1  14
ATOM     14  O   UNL     1       9.286 -26.548  23.036  1.00  0.00    -0.485 OA
BRANCH  14  15
ATOM     15  C   UNL     1      10.562 -26.051  23.095  1.00  0.00     0.123 A 
ATOM     16  C   UNL     1      11.726 -26.799  22.880  1.00  0.00     0.050 A 
ATOM     17  C   UNL     1      10.662 -24.682  23.395  1.00  0.00    -0.009 A 
ATOM     18  C   UNL     1      12.997 -26.205  22.960  1.00  0.00    -0.042 A 
ATOM     19  C   UNL     1      11.927 -24.087  23.476  1.00  0.00     0.007 A 
ATOM     20  C   UNL     1      13.082 -24.840  23.260  1.00  0.00     0.004 A 
ATOM     21  C   UNL     1       9.431 -23.851  23.630  1.00  0.00     0.048 C 
BRANCH  18  22
ATOM     22  C   UNL     1      14.241 -27.045  22.723  1.00  0.00     0.013 C 
ATOM     23  C   UNL     1      14.470 -28.046  23.858  1.00  0.00     0.012 C 
ATOM     24  C   UNL     1      14.190 -27.757  21.369  1.00  0.00     0.012 C 
ENDBRANCH  18  22
ENDBRANCH  14  15
ENDBRANCH   1  14
TORSDOF 5
ENDMDL
MODEL 6
REMARK VINA RESULT:    -6.783      5.028      7.832
REMARK INTER + INTRA:          -9.408
REMARK INTER:                  -8.572
REMARK INTRA:                  -0.836
REMARK UNBOUND:                -0.642
REMARK SMILES Cc1ccc(-c2cc(COc3cc(C(C)C)ccc3C)on2)cc1
REMARK SMILES IDX 9 1 8 2 6 3 7 4 22 5 21 6 5 7 2 8 3 9 24 10 4 11 23 12 1 13
REMARK SMILES IDX 10 14 11 15 12 16 19 17 13 18 18 19 17 20 20 21 14 22 15 23
REMARK SMILES IDX 16 24
REMARK H PARENT
ROOT
ATOM      1  C   UNL     1      10.986 -23.122  22.687  1.00  0.00     0.307 C 
ENDROOT
BRANCH   1   2
ATOM      2  C   UNL     1       9.719 -23.507  22.023  1.00  0.00     0.174 A 
ATOM      3  C   UNL     1       7.703 -23.935  21.195  1.00  0.00     0.114 A 
ATOM      4  C   UNL     1       8.392 -23.204  22.201  1.00  0.00     0.081 A 
ATOM      5  N   UNL     1       8.587 -24.634  20.460  1.00  0.00    -0.079 NA
ATOM      6  O   UNL     1       9.835 -24.365  20.978  1.00  0.00    -0.357 OA
BRANCH   3   7
ATOM      7  C   UNL     1       6.262 -23.984  20.922  1.00  0.00     0.004 A 
ATOM      8  C   UNL     1       3.484 -24.095  20.386  1.00  0.00    -0.051 A 
ATOM      9  C   UNL     1       4.190 -25.255  20.717  1.00  0.00     0.004 A 
ATOM     10  C   UNL     1       4.168 -22.877  20.345  1.00  0.00     0.004 A 
ATOM     11  C   UNL     1       5.564 -25.199  20.977  1.00  0.00     0.011 A 
ATOM     12  C   UNL     1       5.543 -22.822  20.605  1.00  0.00     0.011 A 
ATOM     13  C   UNL     1       2.006 -24.148  20.141  1.00  0.00     0.044 C 
ENDBRANCH   3   7
ENDBRANCH   1   2
BRANCH   1  14
ATOM     14  O   UNL     1      11.050 -23.830  23.923  1.00  0.00    -0.485 OA
BRANCH  14  15
ATOM     15  C   UNL     1      11.391 -25.157  23.878  1.00  0.00     0.123 A 
ATOM     16  C   UNL     1      12.599 -25.660  23.380  1.00  0.00     0.050 A 
ATOM     17  C   UNL     1      10.424 -26.044  24.380  1.00  0.00    -0.009 A 
ATOM     18  C   UNL     1      12.865 -27.040  23.373  1.00  0.00    -0.042 A 
ATOM     19  C   UNL     1      10.685 -27.421  24.374  1.00  0.00     0.007 A 
ATOM     20  C   UNL     1      11.893 -27.913  23.876  1.00  0.00     0.004 A 
ATOM     21  C   UNL     1       9.116 -25.537  24.922  1.00  0.00     0.048 C 
BRANCH  18  22
ATOM     22  C   UNL     1      14.186 -27.553  22.826  1.00  0.00     0.013 C 
ATOM     23  C   UNL     1      14.588 -28.879  23.477  1.00  0.00     0.012 C 
ATOM     24  C   UNL     1      14.152 -27.682  21.301  1.00  0.00     0.012 C 
ENDBRANCH  18  22
ENDBRANCH  14  15
ENDBRANCH   1  14
TORSDOF 5
ENDMDL
MODEL 7
REMARK VINA RESULT:    -6.739      1.528      8.902
REMARK INTER + INTRA:          -9.351
REMARK INTER:                  -8.744
REMARK INTRA:                  -0.607
REMARK UNBOUND:                -0.642
REMARK SMILES Cc1ccc(-c2cc(COc3cc(C(C)C)ccc3C)on2)cc1
REMARK SMILES IDX 9 1 8 2 6 3 7 4 22 5 21 6 5 7 2 8 3 9 24 10 4 11 23 12 1 13
REMARK SMILES IDX 10 14 11 15 12 16 19 17 13 18 18 19 17 20 20 21 14 22 15 23
REMARK SMILES IDX 16 24
REMARK H PARENT
ROOT
ATOM      1  C   UNL     1       9.596 -27.745  21.909  1.00  0.00     0.307 C 
ENDROOT
BRANCH   1   2
ATOM      2  C   UNL     1       8.953 -28.911  22.558  1.00  0.00     0.174 A 
ATOM      3  C   UNL     1       7.949 -30.508  23.731  1.00  0.00     0.114 A 
ATOM      4  C   UNL     1       8.350 -29.144  23.770  1.00  0.00     0.081 A 
ATOM      5  N   UNL     1       8.299 -31.048  22.549  1.00  0.00    -0.079 NA
ATOM      6  O   UNL     1       8.921 -30.053  21.827  1.00  0.00    -0.357 OA
BRANCH   3   7
ATOM      7  C   UNL     1       7.256 -31.289  24.763  1.00  0.00     0.004 A 
ATOM      8  C   UNL     1       5.905 -32.796  26.742  1.00  0.00    -0.051 A 
ATOM      9  C   UNL     1       5.641 -33.007  25.385  1.00  0.00     0.004 A 
ATOM     10  C   UNL     1       6.861 -31.844  27.103  1.00  0.00     0.004 A 
ATOM     11  C   UNL     1       6.306 -32.258  24.409  1.00  0.00     0.011 A 
ATOM     12  C   UNL     1       7.526 -31.094  26.125  1.00  0.00     0.011 A 
ATOM     13  C   UNL     1       5.217 -33.621  27.788  1.00  0.00     0.044 C 
ENDBRANCH   3   7
ENDBRANCH   1   2
BRANCH   1  14
ATOM     14  O   UNL     1      11.006 -27.894  22.067  1.00  0.00    -0.485 OA
BRANCH  14  15
ATOM     15  C   UNL     1      11.731 -26.774  22.380  1.00  0.00     0.123 A 
ATOM     16  C   UNL     1      11.233 -25.465  22.369  1.00  0.00     0.050 A 
ATOM     17  C   UNL     1      13.071 -27.003  22.733  1.00  0.00    -0.009 A 
ATOM     18  C   UNL     1      12.050 -24.373  22.705  1.00  0.00    -0.042 A 
ATOM     19  C   UNL     1      13.889 -25.916  23.069  1.00  0.00     0.007 A 
ATOM     20  C   UNL     1      13.384 -24.615  23.056  1.00  0.00     0.004 A 
ATOM     21  C   UNL     1      13.637 -28.396  22.756  1.00  0.00     0.048 C 
BRANCH  18  22
ATOM     22  C   UNL     1      11.479 -22.965  22.683  1.00  0.00     0.013 C 
ATOM     23  C   UNL     1      10.296 -22.822  23.645  1.00  0.00     0.012 C 
ATOM     24  C   UNL     1      12.553 -21.916  22.979  1.00  0.00     0.012 C 
ENDBRANCH  18  22
ENDBRANCH  14  15
ENDBRANCH   1  14
TORSDOF 5
ENDMDL
MODEL 8
REMARK VINA RESULT:    -6.640      5.779      7.274
REMARK INTER + INTRA:          -9.223
REMARK INTER:                  -8.651
REMARK INTRA:                  -0.572
REMARK UNBOUND:                -0.642
REMARK SMILES Cc1ccc(-c2cc(COc3cc(C(C)C)ccc3C)on2)cc1
REMARK SMILES IDX 9 1 8 2 6 3 7 4 22 5 21 6 5 7 2 8 3 9 24 10 4 11 23 12 1 13
REMARK SMILES IDX 10 14 11 15 12 16 19 17 13 18 18 19 17 20 20 21 14 22 15 23
REMARK SMILES IDX 16 24
REMARK H PARENT
ROOT
ATOM      1  C   UNL     1       7.908 -21.702  21.586  1.00  0.00     0.307 C 
ENDROOT
BRANCH   1   2
ATOM      2  C   UNL     1       8.953 -22.446  22.328  1.00  0.00     0.174 A 
ATOM      3  C   UNL     1      10.528 -23.718  23.242  1.00  0.00     0.114 A 
ATOM      4  C   UNL     1       9.711 -23.565  22.088  1.00  0.00     0.081 A 
ATOM      5  N   UNL     1      10.261 -22.731  24.117  1.00  0.00    -0.079 NA
ATOM      6  O   UNL     1       9.283 -21.946  23.545  1.00  0.00    -0.357 OA
BRANCH   3   7
ATOM      7  C   UNL     1      11.530 -24.752  23.525  1.00  0.00     0.004 A 
ATOM      8  C   UNL     1      13.471 -26.743  24.051  1.00  0.00    -0.051 A 
ATOM      9  C   UNL     1      13.768 -25.668  23.210  1.00  0.00     0.004 A 
ATOM     10  C   UNL     1      12.208 -26.808  24.645  1.00  0.00     0.004 A 
ATOM     11  C   UNL     1      12.807 -24.687  22.947  1.00  0.00     0.011 A 
ATOM     12  C   UNL     1      11.246 -25.825  24.381  1.00  0.00     0.011 A 
ATOM     13  C   UNL     1      14.513 -27.777  24.361  1.00  0.00     0.044 C 
ENDBRANCH   3   7
ENDBRANCH   1   2
BRANCH   1  14
ATOM     14  O   UNL     1       6.649 -22.269  21.943  1.00  0.00    -0.485 OA
BRANCH  14  15
ATOM     15  C   UNL     1       6.112 -23.206  21.099  1.00  0.00     0.123 A 
ATOM     16  C   UNL     1       6.851 -24.034  20.245  1.00  0.00     0.050 A 
ATOM     17  C   UNL     1       4.711 -23.309  21.125  1.00  0.00    -0.009 A 
ATOM     18  C   UNL     1       6.216 -24.970  19.411  1.00  0.00    -0.042 A 
ATOM     19  C   UNL     1       4.075 -24.241  20.295  1.00  0.00     0.007 A 
ATOM     20  C   UNL     1       4.820 -25.063  19.447  1.00  0.00     0.004 A 
ATOM     21  C   UNL     1       3.889 -22.435  22.031  1.00  0.00     0.048 C 
BRANCH  18  22
ATOM     22  C   UNL     1       7.047 -25.855  18.495  1.00  0.00     0.013 C 
ATOM     23  C   UNL     1       8.303 -26.372  19.201  1.00  0.00     0.012 C 
ATOM     24  C   UNL     1       6.221 -27.013  17.930  1.00  0.00     0.012 C 
ENDBRANCH  18  22
ENDBRANCH  14  15
ENDBRANCH   1  14
TORSDOF 5
ENDMDL
