MODEL 1
REMARK VINA RESULT:    -7.630      0.000      0.000
REMARK INTER + INTRA:         -10.471
REMARK INTER:                  -9.861
REMARK INTRA:                  -0.610
REMARK UNBOUND:                -0.610
REMARK SMILES Cc1ccc(-c2cc(COc3cc(C(C)C)ccc3C)on2)cc1
REMARK SMILES IDX 9 1 8 2 6 3 7 4 22 5 21 6 5 7 2 8 3 9 24 10 4 11 23 12 1 13
REMARK SMILES IDX 10 14 11 15 12 16 19 17 13 18 18 19 17 20 20 21 14 22 15 23
REMARK SMILES IDX 16 24
REMARK H PARENT
ROOT
ATOM      1  C   UNL     1     -19.143  18.044 -28.260  1.00  0.00     0.307 C 
ENDROOT
BRANCH   1   2
ATOM      2  C   UNL     1     -19.150  19.029 -27.155  1.00  0.00     0.174 A 
ATOM      3  C   UNL     1     -19.171  20.687 -25.676  1.00  0.00     0.114 A 
ATOM      4  C   UNL     1     -19.199  20.399 -27.068  1.00  0.00     0.081 A 
ATOM      5  N   UNL     1     -19.110  19.537 -24.979  1.00  0.00    -0.079 NA
ATOM      6  O   UNL     1     -19.096  18.513 -25.901  1.00  0.00    -0.357 OA
BRANCH   3   7
ATOM      7  C   UNL     1     -19.203  21.994 -25.009  1.00  0.00     0.004 A 
ATOM      8  C   UNL     1     -19.243  24.514 -23.721  1.00  0.00    -0.051 A 
ATOM      9  C   UNL     1     -18.198  24.175 -24.585  1.00  0.00     0.004 A 
ATOM     10  C   UNL     1     -20.277  23.597 -23.520  1.00  0.00     0.004 A 
ATOM     11  C   UNL     1     -18.177  22.927 -25.217  1.00  0.00     0.011 A 
ATOM     12  C   UNL     1     -20.255  22.348 -24.152  1.00  0.00     0.011 A 
ATOM     13  C   UNL     1     -19.284  25.864 -23.070  1.00  0.00     0.044 C 
ENDBRANCH   3   7
ENDBRANCH   1   2
BRANCH   1  14
ATOM     14  O   UNL     1     -20.289  18.305 -29.069  1.00  0.00    -0.485 OA
BRANCH  14  15
ATOM     15  C   UNL     1     -20.981  17.226 -29.555  1.00  0.00     0.123 A 
ATOM     16  C   UNL     1     -20.794  15.900 -29.146  1.00  0.00     0.050 A 
ATOM     17  C   UNL     1     -21.943  17.520 -30.536  1.00  0.00    -0.009 A 
ATOM     18  C   UNL     1     -21.551  14.854 -29.699  1.00  0.00    -0.042 A 
ATOM     19  C   UNL     1     -22.700  16.480 -31.090  1.00  0.00     0.007 A 
ATOM     20  C   UNL     1     -22.506  15.161 -30.676  1.00  0.00     0.004 A 
ATOM     21  C   UNL     1     -22.170  18.933 -30.997  1.00  0.00     0.048 C 
BRANCH  18  22
ATOM     22  C   UNL     1     -21.323  13.426 -29.233  1.00  0.00     0.013 C 
ATOM     23  C   UNL     1     -20.694  13.382 -27.838  1.00  0.00     0.012 C 
ATOM     24  C   UNL     1     -22.615  12.606 -29.276  1.00  0.00     0.012 C 
ENDBRANCH  18  22
ENDBRANCH  14  15
ENDBRANCH   1  14
TORSDOF 5
ENDMDL
MODEL 2
REMARK VINA RESULT:    -7.496      2.514      4.096
REMARK INTER + INTRA:         -10.297
REMARK INTER:                  -9.452
REMARK INTRA:                  -0.844
REMARK UNBOUND:                -0.610
REMARK SMILES Cc1ccc(-c2cc(COc3cc(C(C)C)ccc3C)on2)cc1
REMARK SMILES IDX 9 1 8 2 6 3 7 4 22 5 21 6 5 7 2 8 3 9 24 10 4 11 23 12 1 13
REMARK SMILES IDX 10 14 11 15 12 16 19 17 13 18 18 19 17 20 20 21 14 22 15 23
REMARK SMILES IDX 16 24
REMARK H PARENT
ROOT
ATOM      1  C   UNL     1     -23.626  17.514 -26.034  1.00  0.00     0.307 C 
ENDROOT
BRANCH   1   2
ATOM      2  C   UNL     1     -22.447  18.342 -26.377  1.00  0.00     0.174 A 
ATOM      3  C   UNL     1     -20.632  19.594 -26.643  1.00  0.00     0.114 A 
ATOM      4  C   UNL     1     -21.448  18.960 -25.666  1.00  0.00     0.081 A 
ATOM      5  N   UNL     1     -21.130  19.357 -27.871  1.00  0.00    -0.079 NA
ATOM      6  O   UNL     1     -22.256  18.580 -27.699  1.00  0.00    -0.357 OA
BRANCH   3   7
ATOM      7  C   UNL     1     -19.421  20.399 -26.444  1.00  0.00     0.004 A 
ATOM      8  C   UNL     1     -17.096  21.967 -26.056  1.00  0.00    -0.051 A 
ATOM      9  C   UNL     1     -18.265  22.242 -25.342  1.00  0.00     0.004 A 
ATOM     10  C   UNL     1     -17.087  20.892 -26.949  1.00  0.00     0.004 A 
ATOM     11  C   UNL     1     -19.415  21.470 -25.538  1.00  0.00     0.011 A 
ATOM     12  C   UNL     1     -18.239  20.119 -27.145  1.00  0.00     0.011 A 
ATOM     13  C   UNL     1     -15.854  22.773 -25.822  1.00  0.00     0.044 C 
ENDBRANCH   3   7
ENDBRANCH   1   2
BRANCH   1  14
ATOM     14  O   UNL     1     -23.151  16.368 -25.329  1.00  0.00    -0.485 OA
BRANCH  14  15
ATOM     15  C   UNL     1     -22.327  15.505 -26.004  1.00  0.00     0.123 A 
ATOM     16  C   UNL     1     -22.534  15.056 -27.314  1.00  0.00     0.050 A 
ATOM     17  C   UNL     1     -21.201  15.064 -25.289  1.00  0.00    -0.009 A 
ATOM     18  C   UNL     1     -21.634  14.169 -27.929  1.00  0.00    -0.042 A 
ATOM     19  C   UNL     1     -20.302  14.180 -25.899  1.00  0.00     0.007 A 
ATOM     20  C   UNL     1     -20.516  13.737 -27.205  1.00  0.00     0.004 A 
ATOM     21  C   UNL     1     -20.949  15.528 -23.881  1.00  0.00     0.048 C 
BRANCH  18  22
ATOM     22  C   UNL     1     -21.888  13.700 -29.352  1.00  0.00     0.013 C 
ATOM     23  C   UNL     1     -22.619  12.355 -29.379  1.00  0.00     0.012 C 
ATOM     24  C   UNL     1     -22.648  14.751 -30.165  1.00  0.00     0.012 C 
ENDBRANCH  18  22
ENDBRANCH  14  15
ENDBRANCH   1  14
TORSDOF 5
ENDMDL
MODEL 3
REMARK VINA RESULT:    -7.470      1.884      8.925
REMARK INTER + INTRA:         -10.264
REMARK INTER:                  -9.669
REMARK INTRA:                  -0.595
REMARK UNBOUND:                -0.610
REMARK SMILES Cc1ccc(-c2cc(COc3cc(C(C)C)ccc3C)on2)cc1
REMARK SMILES IDX 9 1 8 2 6 3 7 4 22 5 21 6 5 7 2 8 3 9 24 10 4 11 23 12 1 13
REMARK SMILES IDX 10 14 11 15 12 16 19 17 13 18 18 19 17 20 20 21 14 22 15 23
REMARK SMILES IDX 16 24
REMARK H PARENT
ROOT
ATOM      1  C   UNL     1     -18.432  20.246 -27.299  1.00  0.00     0.307 C 
ENDROOT
BRANCH   1   2
ATOM      2  C   UNL     1     -19.078  18.913 -27.254  1.00  0.00     0.174 A 
ATOM      3  C   UNL     1     -20.058  16.929 -27.439  1.00  0.00     0.114 A 
ATOM      4  C   UNL     1     -19.573  18.036 -28.187  1.00  0.00     0.081 A 
ATOM      5  N   UNL     1     -19.854  17.147 -26.127  1.00  0.00    -0.079 NA
ATOM      6  O   UNL     1     -19.247  18.379 -26.018  1.00  0.00    -0.357 OA
BRANCH   3   7
ATOM      7  C   UNL     1     -20.692  15.699 -27.928  1.00  0.00     0.004 A 
ATOM      8  C   UNL     1     -21.928  13.328 -28.856  1.00  0.00    -0.051 A 
ATOM      9  C   UNL     1     -22.682  14.319 -28.221  1.00  0.00     0.004 A 
ATOM     10  C   UNL     1     -20.560  13.536 -29.044  1.00  0.00     0.004 A 
ATOM     11  C   UNL     1     -22.069  15.488 -27.759  1.00  0.00     0.011 A 
ATOM     12  C   UNL     1     -19.947  14.706 -28.580  1.00  0.00     0.011 A 
ATOM     13  C   UNL     1     -22.590  12.089 -29.383  1.00  0.00     0.044 C 
ENDBRANCH   3   7
ENDBRANCH   1   2
BRANCH   1  14
ATOM     14  O   UNL     1     -17.933  20.520 -25.991  1.00  0.00    -0.485 OA
BRANCH  14  15
ATOM     15  C   UNL     1     -18.396  21.645 -25.359  1.00  0.00     0.123 A 
ATOM     16  C   UNL     1     -19.640  21.756 -24.725  1.00  0.00     0.050 A 
ATOM     17  C   UNL     1     -17.523  22.746 -25.371  1.00  0.00    -0.009 A 
ATOM     18  C   UNL     1     -20.034  22.951 -24.100  1.00  0.00    -0.042 A 
ATOM     19  C   UNL     1     -17.912  23.939 -24.748  1.00  0.00     0.007 A 
ATOM     20  C   UNL     1     -19.154  24.040 -24.119  1.00  0.00     0.004 A 
ATOM     21  C   UNL     1     -16.180  22.659 -26.041  1.00  0.00     0.048 C 
BRANCH  18  22
ATOM     22  C   UNL     1     -21.391  23.039 -23.422  1.00  0.00     0.013 C 
ATOM     23  C   UNL     1     -22.206  21.758 -23.625  1.00  0.00     0.012 C 
ATOM     24  C   UNL     1     -21.257  23.371 -21.934  1.00  0.00     0.012 C 
ENDBRANCH  18  22
ENDBRANCH  14  15
ENDBRANCH   1  14
TORSDOF 5
ENDMDL
MODEL 4
REMARK VINA RESULT:    -7.445      0.865      2.704
REMARK INTER + INTRA:         -10.232
REMARK INTER:                  -9.610
REMARK INTRA:                  -0.621
REMARK UNBOUND:                -0.610
REMARK SMILES Cc1ccc(-c2cc(COc3cc(C(C)C)ccc3C)on2)cc1
REMARK SMILES IDX 9 1 8 2 6 3 7 4 22 5 21 6 5 7 2 8 3 9 24 10 4 11 23 12 1 13
REMARK SMILES IDX 10 14 11 15 12 16 19 17 13 18 18 19 17 20 20 21 14 22 15 23
REMARK SMILES IDX 16 24
REMARK H PARENT
ROOT
ATOM      1  C   UNL     1     -19.227  17.746 -28.553  1.00  0.00     0.307 C 
ENDROOT
BRANCH   1   2
ATOM      2  C   UNL     1     -19.191  18.724 -27.441  1.00  0.00     0.174 A 
ATOM      3  C   UNL     1     -19.146  20.370 -25.950  1.00  0.00     0.114 A 
ATOM      4  C   UNL     1     -19.204  20.094 -27.344  1.00  0.00     0.081 A 
ATOM      5  N   UNL     1     -19.102  19.214 -25.262  1.00  0.00    -0.079 NA
ATOM      6  O   UNL     1     -19.130  18.197 -26.192  1.00  0.00    -0.357 OA
BRANCH   3   7
ATOM      7  C   UNL     1     -19.132  21.672 -25.274  1.00  0.00     0.004 A 
ATOM      8  C   UNL     1     -19.086  24.184 -23.969  1.00  0.00    -0.051 A 
ATOM      9  C   UNL     1     -18.085  23.840 -24.881  1.00  0.00     0.004 A 
ATOM     10  C   UNL     1     -20.121  23.277 -23.728  1.00  0.00     0.004 A 
ATOM     11  C   UNL     1     -18.106  22.596 -25.521  1.00  0.00     0.011 A 
ATOM     12  C   UNL     1     -20.142  22.032 -24.369  1.00  0.00     0.011 A 
ATOM     13  C   UNL     1     -19.083  25.530 -23.307  1.00  0.00     0.044 C 
ENDBRANCH   3   7
ENDBRANCH   1   2
BRANCH   1  14
ATOM     14  O   UNL     1     -19.889  16.578 -28.071  1.00  0.00    -0.485 OA
BRANCH  14  15
ATOM     15  C   UNL     1     -20.800  15.976 -28.900  1.00  0.00     0.123 A 
ATOM     16  C   UNL     1     -21.446  16.603 -29.973  1.00  0.00     0.050 A 
ATOM     17  C   UNL     1     -21.074  14.628 -28.617  1.00  0.00    -0.009 A 
ATOM     18  C   UNL     1     -22.368  15.907 -30.774  1.00  0.00    -0.042 A 
ATOM     19  C   UNL     1     -21.992  13.931 -29.413  1.00  0.00     0.007 A 
ATOM     20  C   UNL     1     -22.632  14.564 -30.480  1.00  0.00     0.004 A 
ATOM     21  C   UNL     1     -20.396  13.926 -27.473  1.00  0.00     0.048 C 
BRANCH  18  22
ATOM     22  C   UNL     1     -23.053  16.617 -31.930  1.00  0.00     0.013 C 
ATOM     23  C   UNL     1     -24.573  16.440 -31.878  1.00  0.00     0.012 C 
ATOM     24  C   UNL     1     -22.677  18.100 -31.983  1.00  0.00     0.012 C 
ENDBRANCH  18  22
ENDBRANCH  14  15
ENDBRANCH   1  14
TORSDOF 5
ENDMDL
MODEL 5
REMARK VINA RESULT:    -7.436      4.976      6.866
REMARK INTER + INTRA:         -10.219
REMARK INTER:                  -9.505
REMARK INTRA:                  -0.714
REMARK UNBOUND:                -0.610
REMARK SMILES Cc1ccc(-c2cc(COc3cc(C(C)C)ccc3C)on2)cc1
REMARK SMILES IDX 9 1 8 2 6 3 7 4 22 5 21 6 5 7 2 8 3 9 24 10 4 11 23 12 1 13
REMARK SMILES IDX 10 14 11 15 12 16 19 17 13 18 18 19 17 20 20 21 14 22 15 23
REMARK SMILES IDX 16 24
REMARK H PARENT
ROOT
ATOM      1  C   UNL     1     -22.351  15.240 -30.958  1.00  0.00     0.307 C 
ENDROOT
BRANCH   1   2
ATOM      2  C   UNL     1     -22.267  14.944 -29.509  1.00  0.00     0.174 A 
ATOM      3  C   UNL     1     -22.020  14.720 -27.313  1.00  0.00     0.114 A 
ATOM      4  C   UNL     1     -21.745  15.582 -28.410  1.00  0.00     0.081 A 
ATOM      5  N   UNL     1     -22.674  13.628 -27.749  1.00  0.00    -0.079 NA
ATOM      6  O   UNL     1     -22.824  13.772 -29.111  1.00  0.00    -0.357 OA
BRANCH   3   7
ATOM      7  C   UNL     1     -21.685  14.906 -25.896  1.00  0.00     0.004 A 
ATOM      8  C   UNL     1     -21.035  15.246 -23.162  1.00  0.00    -0.051 A 
ATOM      9  C   UNL     1     -20.277  14.396 -23.971  1.00  0.00     0.004 A 
ATOM     10  C   UNL     1     -22.106  15.941 -23.729  1.00  0.00     0.004 A 
ATOM     11  C   UNL     1     -20.602  14.225 -25.321  1.00  0.00     0.011 A 
ATOM     12  C   UNL     1     -22.432  15.769 -25.080  1.00  0.00     0.011 A 
ATOM     13  C   UNL     1     -20.666  15.456 -21.723  1.00  0.00     0.044 C 
ENDBRANCH   3   7
ENDBRANCH   1   2
BRANCH   1  14
ATOM     14  O   UNL     1     -23.550  15.981 -31.171  1.00  0.00    -0.485 OA
BRANCH  14  15
ATOM     15  C   UNL     1     -23.430  17.322 -31.432  1.00  0.00     0.123 A 
ATOM     16  C   UNL     1     -22.247  18.061 -31.307  1.00  0.00     0.050 A 
ATOM     17  C   UNL     1     -24.607  17.961 -31.856  1.00  0.00    -0.009 A 
ATOM     18  C   UNL     1     -22.215  19.436 -31.598  1.00  0.00    -0.042 A 
ATOM     19  C   UNL     1     -24.578  19.332 -32.146  1.00  0.00     0.007 A 
ATOM     20  C   UNL     1     -23.395  20.061 -32.019  1.00  0.00     0.004 A 
ATOM     21  C   UNL     1     -25.893  17.196 -32.002  1.00  0.00     0.048 C 
BRANCH  18  22
ATOM     22  C   UNL     1     -20.915  20.210 -31.451  1.00  0.00     0.013 C 
ATOM     23  C   UNL     1     -20.273  20.495 -32.811  1.00  0.00     0.012 C 
ATOM     24  C   UNL     1     -21.117  21.505 -30.660  1.00  0.00     0.012 C 
ENDBRANCH  18  22
ENDBRANCH  14  15
ENDBRANCH   1  14
TORSDOF 5
ENDMDL
MODEL 6
REMARK VINA RESULT:    -7.377      4.096      6.039
REMARK INTER + INTRA:         -10.143
REMARK INTER:                  -9.195
REMARK INTRA:                  -0.948
REMARK UNBOUND:                -0.610
REMARK SMILES Cc1ccc(-c2cc(COc3cc(C(C)C)ccc3C)on2)cc1
REMARK SMILES IDX 9 1 8 2 6 3 7 4 22 5 21 6 5 7 2 8 3 9 24 10 4 11 23 12 1 13
REMARK SMILES IDX 10 14 11 15 12 16 19 17 13 18 18 19 17 20 20 21 14 22 15 23
REMARK SMILES IDX 16 24
REMARK H PARENT
ROOT
ATOM      1  C   UNL     1     -19.555  17.666 -27.908  1.00  0.00     0.307 C 
ENDROOT
BRANCH   1   2
ATOM      2  C   UNL     1     -20.274  17.323 -26.659  1.00  0.00     0.174 A 
ATOM      3  C   UNL     1     -21.174  16.634 -24.749  1.00  0.00     0.114 A 
ATOM      4  C   UNL     1     -20.091  16.415 -25.645  1.00  0.00     0.081 A 
ATOM      5  N   UNL     1     -21.953  17.626 -25.216  1.00  0.00    -0.079 NA
ATOM      6  O   UNL     1     -21.391  18.049 -26.401  1.00  0.00    -0.357 OA
BRANCH   3   7
ATOM      7  C   UNL     1     -21.476  15.942 -23.490  1.00  0.00     0.004 A 
ATOM      8  C   UNL     1     -22.057  14.624 -21.054  1.00  0.00    -0.051 A 
ATOM      9  C   UNL     1     -22.549  15.908 -21.301  1.00  0.00     0.004 A 
ATOM     10  C   UNL     1     -21.292  13.993 -22.037  1.00  0.00     0.004 A 
ATOM     11  C   UNL     1     -22.257  16.560 -22.503  1.00  0.00     0.011 A 
ATOM     12  C   UNL     1     -20.999  14.647 -23.241  1.00  0.00     0.011 A 
ATOM     13  C   UNL     1     -22.398  13.911 -19.779  1.00  0.00     0.044 C 
ENDBRANCH   3   7
ENDBRANCH   1   2
BRANCH   1  14
ATOM     14  O   UNL     1     -19.498  16.483 -28.703  1.00  0.00    -0.485 OA
BRANCH  14  15
ATOM     15  C   UNL     1     -20.644  16.095 -29.347  1.00  0.00     0.123 A 
ATOM     16  C   UNL     1     -21.506  16.955 -30.040  1.00  0.00     0.050 A 
ATOM     17  C   UNL     1     -20.937  14.723 -29.282  1.00  0.00    -0.009 A 
ATOM     18  C   UNL     1     -22.663  16.469 -30.673  1.00  0.00    -0.042 A 
ATOM     19  C   UNL     1     -22.089  14.235 -29.912  1.00  0.00     0.007 A 
ATOM     20  C   UNL     1     -22.943  15.099 -30.600  1.00  0.00     0.004 A 
ATOM     21  C   UNL     1     -20.031  13.774 -28.548  1.00  0.00     0.048 C 
BRANCH  18  22
ATOM     22  C   UNL     1     -23.579  17.428 -31.416  1.00  0.00     0.013 C 
ATOM     23  C   UNL     1     -22.896  18.775 -31.669  1.00  0.00     0.012 C 
ATOM     24  C   UNL     1     -24.089  16.820 -32.724  1.00  0.00     0.012 C 
ENDBRANCH  18  22
ENDBRANCH  14  15
ENDBRANCH   1  14
TORSDOF 5
ENDMDL
MODEL 7
REMARK VINA RESULT:    -7.329      4.610      6.022
REMARK INTER + INTRA:         -10.082
REMARK INTER:                  -9.223
REMARK INTRA:                  -0.859
REMARK UNBOUND:                -0.610
REMARK SMILES Cc1ccc(-c2cc(COc3cc(C(C)C)ccc3C)on2)cc1
REMARK SMILES IDX 9 1 8 2 6 3 7 4 22 5 21 6 5 7 2 8 3 9 24 10 4 11 23 12 1 13
REMARK SMILES IDX 10 14 11 15 12 16 19 17 13 18 18 19 17 20 20 21 14 22 15 23
REMARK SMILES IDX 16 24
REMARK H PARENT
ROOT
ATOM      1  C   UNL     1     -22.295  13.846 -28.843  1.00  0.00     0.307 C 
ENDROOT
BRANCH   1   2
ATOM      2  C   UNL     1     -21.961  14.231 -27.452  1.00  0.00     0.174 A 
ATOM      3  C   UNL     1     -21.676  14.940 -25.367  1.00  0.00     0.114 A 
ATOM      4  C   UNL     1     -22.554  15.004 -26.484  1.00  0.00     0.081 A 
ATOM      5  N   UNL     1     -20.619  14.163 -25.666  1.00  0.00    -0.079 NA
ATOM      6  O   UNL     1     -20.801  13.726 -26.961  1.00  0.00    -0.357 OA
BRANCH   3   7
ATOM      7  C   UNL     1     -21.816  15.582 -24.054  1.00  0.00     0.004 A 
ATOM      8  C   UNL     1     -22.080  16.837 -21.531  1.00  0.00    -0.051 A 
ATOM      9  C   UNL     1     -22.443  17.511 -22.700  1.00  0.00     0.004 A 
ATOM     10  C   UNL     1     -21.605  15.527 -21.626  1.00  0.00     0.004 A 
ATOM     11  C   UNL     1     -22.307  16.891 -23.947  1.00  0.00     0.011 A 
ATOM     12  C   UNL     1     -21.469  14.907 -22.875  1.00  0.00     0.011 A 
ATOM     13  C   UNL     1     -22.257  17.489 -20.192  1.00  0.00     0.044 C 
ENDBRANCH   3   7
ENDBRANCH   1   2
BRANCH   1  14
ATOM     14  O   UNL     1     -21.381  14.524 -29.703  1.00  0.00    -0.485 OA
BRANCH  14  15
ATOM     15  C   UNL     1     -21.742  15.765 -30.160  1.00  0.00     0.123 A 
ATOM     16  C   UNL     1     -22.811  16.022 -31.028  1.00  0.00     0.050 A 
ATOM     17  C   UNL     1     -20.953  16.831 -29.697  1.00  0.00    -0.009 A 
ATOM     18  C   UNL     1     -23.110  17.330 -31.446  1.00  0.00    -0.042 A 
ATOM     19  C   UNL     1     -21.249  18.136 -30.111  1.00  0.00     0.007 A 
ATOM     20  C   UNL     1     -22.316  18.383 -30.976  1.00  0.00     0.004 A 
ATOM     21  C   UNL     1     -19.799  16.590 -28.763  1.00  0.00     0.048 C 
BRANCH  18  22
ATOM     22  C   UNL     1     -24.276  17.574 -32.390  1.00  0.00     0.013 C 
ATOM     23  C   UNL     1     -25.430  16.604 -32.122  1.00  0.00     0.012 C 
ATOM     24  C   UNL     1     -24.757  19.026 -32.326  1.00  0.00     0.012 C 
ENDBRANCH  18  22
ENDBRANCH  14  15
ENDBRANCH   1  14
TORSDOF 5
ENDMDL
MODEL 8
REMARK VINA RESULT:    -7.229      1.269      3.529
REMARK INTER + INTRA:          -9.952
REMARK INTER:                  -9.223
REMARK INTRA:                  -0.729
REMARK UNBOUND:                -0.610
REMARK SMILES Cc1ccc(-c2cc(COc3cc(C(C)C)ccc3C)on2)cc1
REMARK SMILES IDX 9 1 8 2 6 3 7 4 22 5 21 6 5 7 2 8 3 9 24 10 4 11 23 12 1 13
REMARK SMILES IDX 10 14 11 15 12 16 19 17 13 18 18 19 17 20 20 21 14 22 15 23
REMARK SMILES IDX 16 24
REMARK H PARENT
ROOT
ATOM      1  C   UNL     1     -19.616  16.497 -28.468  1.00  0.00     0.307 C 
ENDROOT
BRANCH   1   2
ATOM      2  C   UNL     1     -19.470  17.601 -27.491  1.00  0.00     0.174 A 
ATOM      3  C   UNL     1     -19.221  19.409 -26.225  1.00  0.00     0.114 A 
ATOM      4  C   UNL     1     -19.252  18.955 -27.572  1.00  0.00     0.081 A 
ATOM      5  N   UNL     1     -19.414  18.369 -25.393  1.00  0.00    -0.079 NA
ATOM      6  O   UNL     1     -19.567  17.251 -26.184  1.00  0.00    -0.357 OA
BRANCH   3   7
ATOM      7  C   UNL     1     -19.019  20.774 -25.723  1.00  0.00     0.004 A 
ATOM      8  C   UNL     1     -18.649  23.407 -24.752  1.00  0.00    -0.051 A 
ATOM      9  C   UNL     1     -19.648  22.587 -24.219  1.00  0.00     0.004 A 
ATOM     10  C   UNL     1     -17.823  22.897 -25.757  1.00  0.00     0.004 A 
ATOM     11  C   UNL     1     -19.833  21.288 -24.703  1.00  0.00     0.011 A 
ATOM     12  C   UNL     1     -18.009  21.597 -26.242  1.00  0.00     0.011 A 
ATOM     13  C   UNL     1     -18.428  24.787 -24.211  1.00  0.00     0.044 C 
ENDBRANCH   3   7
ENDBRANCH   1   2
BRANCH   1  14
ATOM     14  O   UNL     1     -21.011  16.237 -28.610  1.00  0.00    -0.485 OA
BRANCH  14  15
ATOM     15  C   UNL     1     -21.615  16.628 -29.777  1.00  0.00     0.123 A 
ATOM     16  C   UNL     1     -21.567  17.922 -30.311  1.00  0.00     0.050 A 
ATOM     17  C   UNL     1     -22.323  15.623 -30.456  1.00  0.00    -0.009 A 
ATOM     18  C   UNL     1     -22.217  18.235 -31.517  1.00  0.00    -0.042 A 
ATOM     19  C   UNL     1     -22.971  15.931 -31.659  1.00  0.00     0.007 A 
ATOM     20  C   UNL     1     -22.919  17.223 -32.183  1.00  0.00     0.004 A 
ATOM     21  C   UNL     1     -22.392  14.223 -29.910  1.00  0.00     0.048 C 
BRANCH  18  22
ATOM     22  C   UNL     1     -22.147  19.649 -32.069  1.00  0.00     0.013 C 
ATOM     23  C   UNL     1     -22.844  20.650 -31.144  1.00  0.00     0.012 C 
ATOM     24  C   UNL     1     -20.703  20.075 -32.345  1.00  0.00     0.012 C 
ENDBRANCH  18  22
ENDBRANCH  14  15
ENDBRANCH   1  14
TORSDOF 5
ENDMDL
