MODEL 1
REMARK VINA RESULT:    -7.477      0.000      0.000
REMARK INTER + INTRA:         -10.247
REMARK INTER:                  -9.662
REMARK INTRA:                  -0.585
REMARK UNBOUND:                -0.585
REMARK SMILES Cc1ccc(C(C)C)cc1OCc1cc(-c2ccccc2)no1
REMARK SMILES IDX 11 1 10 2 2 3 3 4 4 5 9 6 5 7 1 8 6 9 7 10 8 11 12 12 13 13
REMARK SMILES IDX 14 14 23 15 15 16 22 17 16 18 17 19 21 20 18 21 20 22 19 23
REMARK H PARENT
ROOT
ATOM      1  O   UNL     1     -20.281  18.401 -29.120  1.00  0.00    -0.485 OA
ENDROOT
BRANCH   1   2
ATOM      2  C   UNL     1     -20.964  17.295 -29.556  1.00  0.00     0.123 A 
ATOM      3  C   UNL     1     -21.926  17.528 -30.553  1.00  0.00    -0.009 A 
ATOM      4  C   UNL     1     -22.657  16.448 -31.067  1.00  0.00     0.007 A 
ATOM      5  C   UNL     1     -22.428  15.151 -30.606  1.00  0.00     0.004 A 
ATOM      6  C   UNL     1     -20.733  15.989 -29.109  1.00  0.00     0.050 A 
ATOM      7  C   UNL     1     -21.462  14.903 -29.625  1.00  0.00    -0.042 A 
ATOM      8  C   UNL     1     -22.184  18.916 -31.069  1.00  0.00     0.048 C 
BRANCH   7   9
ATOM      9  C   UNL     1     -21.215  13.482 -29.151  1.00  0.00     0.013 C 
ATOM     10  C   UNL     1     -20.669  13.454 -27.720  1.00  0.00     0.012 C 
ATOM     11  C   UNL     1     -22.473  12.620 -29.272  1.00  0.00     0.012 C 
ENDBRANCH   7   9
ENDBRANCH   1   2
BRANCH   1  12
ATOM     12  C   UNL     1     -19.111  18.205 -28.320  1.00  0.00     0.307 C 
BRANCH  12  13
ATOM     13  C   UNL     1     -19.129  19.156 -27.187  1.00  0.00     0.174 A 
ATOM     14  C   UNL     1     -19.223  20.521 -27.063  1.00  0.00     0.081 A 
ATOM     15  O   UNL     1     -19.029  18.610 -25.949  1.00  0.00    -0.357 OA
ATOM     16  C   UNL     1     -19.160  20.774 -25.667  1.00  0.00     0.114 A 
ATOM     17  N   UNL     1     -19.048  19.610 -25.001  1.00  0.00    -0.079 NA
BRANCH  16  18
ATOM     18  C   UNL     1     -19.205  22.063 -24.969  1.00  0.00     0.004 A 
ATOM     19  C   UNL     1     -20.232  22.344 -24.053  1.00  0.00     0.010 A 
ATOM     20  C   UNL     1     -18.228  23.044 -25.193  1.00  0.00     0.010 A 
ATOM     21  C   UNL     1     -20.282  23.571 -23.384  1.00  0.00     0.001 A 
ATOM     22  C   UNL     1     -18.278  24.271 -24.525  1.00  0.00     0.001 A 
ATOM     23  C   UNL     1     -19.306  24.534 -23.622  1.00  0.00     0.000 A 
ENDBRANCH  16  18
ENDBRANCH  12  13
ENDBRANCH   1  12
TORSDOF 5
ENDMDL
MODEL 2
REMARK VINA RESULT:    -7.401      2.476      3.934
REMARK INTER + INTRA:         -10.150
REMARK INTER:                  -9.207
REMARK INTRA:                  -0.943
REMARK UNBOUND:                -0.585
REMARK SMILES Cc1ccc(C(C)C)cc1OCc1cc(-c2ccccc2)no1
REMARK SMILES IDX 11 1 10 2 2 3 3 4 4 5 9 6 5 7 1 8 6 9 7 10 8 11 12 12 13 13
REMARK SMILES IDX 14 14 23 15 15 16 22 17 16 18 17 19 21 20 18 21 20 22 19 23
REMARK H PARENT
ROOT
ATOM      1  O   UNL     1     -23.178  16.628 -25.324  1.00  0.00    -0.485 OA
ENDROOT
BRANCH   1   2
ATOM      2  C   UNL     1     -22.363  15.720 -25.948  1.00  0.00     0.123 A 
ATOM      3  C   UNL     1     -21.346  15.167 -25.152  1.00  0.00    -0.009 A 
ATOM      4  C   UNL     1     -20.479  14.216 -25.709  1.00  0.00     0.007 A 
ATOM      5  C   UNL     1     -20.626  13.811 -27.035  1.00  0.00     0.004 A 
ATOM      6  C   UNL     1     -22.510  15.297 -27.274  1.00  0.00     0.050 A 
ATOM      7  C   UNL     1     -21.645  14.341 -27.834  1.00  0.00    -0.042 A 
ATOM      8  C   UNL     1     -21.174  15.584 -23.718  1.00  0.00     0.048 C 
BRANCH   7   9
ATOM      9  C   UNL     1     -21.800  13.872 -29.271  1.00  0.00     0.013 C 
ATOM     10  C   UNL     1     -22.510  12.517 -29.345  1.00  0.00     0.012 C 
ATOM     11  C   UNL     1     -22.518  14.913 -30.130  1.00  0.00     0.012 C 
ENDBRANCH   7   9
ENDBRANCH   1   2
BRANCH   1  12
ATOM     12  C   UNL     1     -23.354  17.912 -25.930  1.00  0.00     0.307 C 
BRANCH  12  13
ATOM     13  C   UNL     1     -22.151  18.736 -25.685  1.00  0.00     0.174 A 
ATOM     14  C   UNL     1     -21.215  19.355 -26.478  1.00  0.00     0.081 A 
ATOM     15  O   UNL     1     -21.843  18.969 -24.383  1.00  0.00    -0.357 OA
ATOM     16  C   UNL     1     -20.308  19.970 -25.574  1.00  0.00     0.114 A 
ATOM     17  N   UNL     1     -20.701  19.736 -24.309  1.00  0.00    -0.079 NA
BRANCH  16  18
ATOM     18  C   UNL     1     -19.109  20.758 -25.879  1.00  0.00     0.004 A 
ATOM     19  C   UNL     1     -18.146  20.274 -26.780  1.00  0.00     0.010 A 
ATOM     20  C   UNL     1     -18.892  22.010 -25.284  1.00  0.00     0.010 A 
ATOM     21  C   UNL     1     -17.000  21.018 -27.075  1.00  0.00     0.001 A 
ATOM     22  C   UNL     1     -17.745  22.754 -25.578  1.00  0.00     0.001 A 
ATOM     23  C   UNL     1     -16.800  22.257 -26.473  1.00  0.00     0.000 A 
ENDBRANCH  16  18
ENDBRANCH  12  13
ENDBRANCH   1  12
TORSDOF 5
ENDMDL
MODEL 3
REMARK VINA RESULT:    -7.287      1.561      3.732
REMARK INTER + INTRA:         -10.002
REMARK INTER:                  -9.301
REMARK INTRA:                  -0.701
REMARK UNBOUND:                -0.585
REMARK SMILES Cc1ccc(C(C)C)cc1OCc1cc(-c2ccccc2)no1
REMARK SMILES IDX 11 1 10 2 2 3 3 4 4 5 9 6 5 7 1 8 6 9 7 10 8 11 12 12 13 13
REMARK SMILES IDX 14 14 23 15 15 16 22 17 16 18 17 19 21 20 18 21 20 22 19 23
REMARK H PARENT
ROOT
ATOM      1  O   UNL     1     -21.586  16.485 -28.476  1.00  0.00    -0.485 OA
ENDROOT
BRANCH   1   2
ATOM      2  C   UNL     1     -21.931  16.907 -29.735  1.00  0.00     0.123 A 
ATOM      3  C   UNL     1     -22.539  15.942 -30.555  1.00  0.00    -0.009 A 
ATOM      4  C   UNL     1     -22.938  16.296 -31.851  1.00  0.00     0.007 A 
ATOM      5  C   UNL     1     -22.748  17.595 -32.324  1.00  0.00     0.004 A 
ATOM      6  C   UNL     1     -21.756  18.211 -30.214  1.00  0.00     0.050 A 
ATOM      7  C   UNL     1     -22.159  18.570 -31.512  1.00  0.00    -0.042 A 
ATOM      8  C   UNL     1     -22.760  14.539 -30.063  1.00  0.00     0.048 C 
BRANCH   7   9
ATOM      9  C   UNL     1     -21.978  19.983 -32.039  1.00  0.00     0.013 C 
ATOM     10  C   UNL     1     -22.386  21.027 -30.996  1.00  0.00     0.012 C 
ATOM     11  C   UNL     1     -20.547  20.226 -32.524  1.00  0.00     0.012 C 
ENDBRANCH   7   9
ENDBRANCH   1   2
BRANCH   1  12
ATOM     12  C   UNL     1     -20.198  16.314 -28.175  1.00  0.00     0.307 C 
BRANCH  12  13
ATOM     13  C   UNL     1     -19.726  17.469 -27.379  1.00  0.00     0.174 A 
ATOM     14  C   UNL     1     -19.164  18.687 -27.671  1.00  0.00     0.081 A 
ATOM     15  O   UNL     1     -19.846  17.354 -26.032  1.00  0.00    -0.357 OA
ATOM     16  C   UNL     1     -18.938  19.305 -26.412  1.00  0.00     0.114 A 
ATOM     17  N   UNL     1     -19.359  18.492 -25.427  1.00  0.00    -0.079 NA
BRANCH  16  18
ATOM     18  C   UNL     1     -18.347  20.618 -26.132  1.00  0.00     0.004 A 
ATOM     19  C   UNL     1     -19.010  21.538 -25.302  1.00  0.00     0.010 A 
ATOM     20  C   UNL     1     -17.109  20.989 -26.678  1.00  0.00     0.010 A 
ATOM     21  C   UNL     1     -18.454  22.791 -25.031  1.00  0.00     0.001 A 
ATOM     22  C   UNL     1     -16.553  22.243 -26.406  1.00  0.00     0.001 A 
ATOM     23  C   UNL     1     -17.226  23.143 -25.584  1.00  0.00     0.000 A 
ENDBRANCH  16  18
ENDBRANCH  12  13
ENDBRANCH   1  12
TORSDOF 5
ENDMDL
MODEL 4
REMARK VINA RESULT:    -7.259      4.619      6.133
REMARK INTER + INTRA:          -9.966
REMARK INTER:                  -9.161
REMARK INTRA:                  -0.805
REMARK UNBOUND:                -0.585
REMARK SMILES Cc1ccc(C(C)C)cc1OCc1cc(-c2ccccc2)no1
REMARK SMILES IDX 11 1 10 2 2 3 3 4 4 5 9 6 5 7 1 8 6 9 7 10 8 11 12 12 13 13
REMARK SMILES IDX 14 14 23 15 15 16 22 17 16 18 17 19 21 20 18 21 20 22 19 23
REMARK H PARENT
ROOT
ATOM      1  O   UNL     1     -21.471  14.653 -29.823  1.00  0.00    -0.485 OA
ENDROOT
BRANCH   1   2
ATOM      2  C   UNL     1     -21.853  15.904 -30.238  1.00  0.00     0.123 A 
ATOM      3  C   UNL     1     -21.063  16.967 -29.770  1.00  0.00    -0.009 A 
ATOM      4  C   UNL     1     -21.374  18.277 -30.161  1.00  0.00     0.007 A 
ATOM      5  C   UNL     1     -22.448  18.527 -31.016  1.00  0.00     0.004 A 
ATOM      6  C   UNL     1     -22.920  16.163 -31.105  1.00  0.00     0.050 A 
ATOM      7  C   UNL     1     -23.232  17.475 -31.502  1.00  0.00    -0.042 A 
ATOM      8  C   UNL     1     -19.897  16.720 -28.854  1.00  0.00     0.048 C 
BRANCH   7   9
ATOM      9  C   UNL     1     -24.385  17.767 -32.447  1.00  0.00     0.013 C 
ATOM     10  C   UNL     1     -25.534  16.772 -32.256  1.00  0.00     0.012 C 
ATOM     11  C   UNL     1     -24.881  19.207 -32.304  1.00  0.00     0.012 C 
ENDBRANCH   7   9
ENDBRANCH   1   2
BRANCH   1  12
ATOM     12  C   UNL     1     -22.331  13.945 -28.925  1.00  0.00     0.307 C 
BRANCH  12  13
ATOM     13  C   UNL     1     -21.865  14.155 -27.536  1.00  0.00     0.174 A 
ATOM     14  C   UNL     1     -22.388  14.749 -26.414  1.00  0.00     0.081 A 
ATOM     15  O   UNL     1     -20.632  13.672 -27.241  1.00  0.00    -0.357 OA
ATOM     16  C   UNL     1     -21.387  14.608 -25.416  1.00  0.00     0.114 A 
ATOM     17  N   UNL     1     -20.331  13.949 -25.925  1.00  0.00    -0.079 NA
BRANCH  16  18
ATOM     18  C   UNL     1     -21.412  15.070 -24.024  1.00  0.00     0.004 A 
ATOM     19  C   UNL     1     -20.666  14.405 -23.036  1.00  0.00     0.010 A 
ATOM     20  C   UNL     1     -22.175  16.185 -23.643  1.00  0.00     0.010 A 
ATOM     21  C   UNL     1     -20.686  14.840 -21.708  1.00  0.00     0.001 A 
ATOM     22  C   UNL     1     -22.194  16.619 -22.314  1.00  0.00     0.001 A 
ATOM     23  C   UNL     1     -21.451  15.946 -21.347  1.00  0.00     0.000 A 
ENDBRANCH  16  18
ENDBRANCH  12  13
ENDBRANCH   1  12
TORSDOF 5
ENDMDL
MODEL 5
REMARK VINA RESULT:    -7.253      1.422      3.263
REMARK INTER + INTRA:          -9.958
REMARK INTER:                  -9.312
REMARK INTRA:                  -0.646
REMARK UNBOUND:                -0.585
REMARK SMILES Cc1ccc(C(C)C)cc1OCc1cc(-c2ccccc2)no1
REMARK SMILES IDX 11 1 10 2 2 3 3 4 4 5 9 6 5 7 1 8 6 9 7 10 8 11 12 12 13 13
REMARK SMILES IDX 14 14 23 15 15 16 22 17 16 18 17 19 21 20 18 21 20 22 19 23
REMARK H PARENT
ROOT
ATOM      1  O   UNL     1     -20.160  16.032 -27.880  1.00  0.00    -0.485 OA
ENDROOT
BRANCH   1   2
ATOM      2  C   UNL     1     -21.038  15.847 -28.918  1.00  0.00     0.123 A 
ATOM      3  C   UNL     1     -21.489  14.530 -29.106  1.00  0.00    -0.009 A 
ATOM      4  C   UNL     1     -22.401  14.257 -30.134  1.00  0.00     0.007 A 
ATOM      5  C   UNL     1     -22.870  15.280 -30.959  1.00  0.00     0.004 A 
ATOM      6  C   UNL     1     -21.523  16.869 -29.742  1.00  0.00     0.050 A 
ATOM      7  C   UNL     1     -22.441  16.599 -30.772  1.00  0.00    -0.042 A 
ATOM      8  C   UNL     1     -21.003  13.414 -28.224  1.00  0.00     0.048 C 
BRANCH   7   9
ATOM      9  C   UNL     1     -22.978  17.701 -31.669  1.00  0.00     0.013 C 
ATOM     10  C   UNL     1     -21.869  18.667 -32.096  1.00  0.00     0.012 C 
ATOM     11  C   UNL     1     -23.706  17.133 -32.888  1.00  0.00     0.012 C 
ENDBRANCH   7   9
ENDBRANCH   1   2
BRANCH   1  12
ATOM     12  C   UNL     1     -20.618  16.739 -26.723  1.00  0.00     0.307 C 
BRANCH  12  13
ATOM     13  C   UNL     1     -19.907  18.033 -26.629  1.00  0.00     0.174 A 
ATOM     14  C   UNL     1     -19.907  19.081 -25.742  1.00  0.00     0.081 A 
ATOM     15  O   UNL     1     -19.036  18.309 -27.633  1.00  0.00    -0.357 OA
ATOM     16  C   UNL     1     -18.986  20.022 -26.277  1.00  0.00     0.114 A 
ATOM     17  N   UNL     1     -18.461  19.542 -27.418  1.00  0.00    -0.079 NA
BRANCH  16  18
ATOM     18  C   UNL     1     -18.604  21.333 -25.740  1.00  0.00     0.004 A 
ATOM     19  C   UNL     1     -17.338  21.876 -26.016  1.00  0.00     0.010 A 
ATOM     20  C   UNL     1     -19.487  22.077 -24.944  1.00  0.00     0.010 A 
ATOM     21  C   UNL     1     -16.966  23.124 -25.507  1.00  0.00     0.001 A 
ATOM     22  C   UNL     1     -19.114  23.325 -24.435  1.00  0.00     0.001 A 
ATOM     23  C   UNL     1     -17.854  23.847 -24.716  1.00  0.00     0.000 A 
ENDBRANCH  16  18
ENDBRANCH  12  13
ENDBRANCH   1  12
TORSDOF 5
ENDMDL
MODEL 6
REMARK VINA RESULT:    -7.241      3.773      5.633
REMARK INTER + INTRA:          -9.943
REMARK INTER:                  -9.029
REMARK INTRA:                  -0.914
REMARK UNBOUND:                -0.585
REMARK SMILES Cc1ccc(C(C)C)cc1OCc1cc(-c2ccccc2)no1
REMARK SMILES IDX 11 1 10 2 2 3 3 4 4 5 9 6 5 7 1 8 6 9 7 10 8 11 12 12 13 13
REMARK SMILES IDX 14 14 23 15 15 16 22 17 16 18 17 19 21 20 18 21 20 22 19 23
REMARK H PARENT
ROOT
ATOM      1  O   UNL     1     -19.518  16.552 -28.798  1.00  0.00    -0.485 OA
ENDROOT
BRANCH   1   2
ATOM      2  C   UNL     1     -20.640  16.034 -29.392  1.00  0.00     0.123 A 
ATOM      3  C   UNL     1     -20.825  14.650 -29.239  1.00  0.00    -0.009 A 
ATOM      4  C   UNL     1     -21.957  14.042 -29.800  1.00  0.00     0.007 A 
ATOM      5  C   UNL     1     -22.900  14.801 -30.494  1.00  0.00     0.004 A 
ATOM      6  C   UNL     1     -21.598  16.788 -30.079  1.00  0.00     0.050 A 
ATOM      7  C   UNL     1     -22.736  16.183 -30.639  1.00  0.00    -0.042 A 
ATOM      8  C   UNL     1     -19.826  13.815 -28.488  1.00  0.00     0.048 C 
BRANCH   7   9
ATOM      9  C   UNL     1     -23.784  16.993 -31.383  1.00  0.00     0.013 C 
ATOM     10  C   UNL     1     -23.823  18.444 -30.893  1.00  0.00     0.012 C 
ATOM     11  C   UNL     1     -23.575  16.933 -32.897  1.00  0.00     0.012 C 
ENDBRANCH   7   9
ENDBRANCH   1   2
BRANCH   1  12
ATOM     12  C   UNL     1     -19.663  17.703 -27.961  1.00  0.00     0.307 C 
BRANCH  12  13
ATOM     13  C   UNL     1     -20.297  17.302 -26.686  1.00  0.00     0.174 A 
ATOM     14  C   UNL     1     -20.086  16.305 -25.765  1.00  0.00     0.081 A 
ATOM     15  O   UNL     1     -21.346  18.060 -26.277  1.00  0.00    -0.357 OA
ATOM     16  C   UNL     1     -21.084  16.496 -24.773  1.00  0.00     0.114 A 
ATOM     17  N   UNL     1     -21.838  17.564 -25.089  1.00  0.00    -0.079 NA
BRANCH  16  18
ATOM     18  C   UNL     1     -21.330  15.708 -23.561  1.00  0.00     0.004 A 
ATOM     19  C   UNL     1     -22.183  16.192 -22.555  1.00  0.00     0.010 A 
ATOM     20  C   UNL     1     -20.726  14.455 -23.374  1.00  0.00     0.010 A 
ATOM     21  C   UNL     1     -22.422  15.446 -21.396  1.00  0.00     0.001 A 
ATOM     22  C   UNL     1     -20.964  13.711 -22.214  1.00  0.00     0.001 A 
ATOM     23  C   UNL     1     -21.811  14.207 -21.226  1.00  0.00     0.000 A 
ENDBRANCH  16  18
ENDBRANCH  12  13
ENDBRANCH   1  12
TORSDOF 5
ENDMDL
MODEL 7
REMARK VINA RESULT:    -7.104      2.869      8.440
REMARK INTER + INTRA:          -9.766
REMARK INTER:                  -9.076
REMARK INTRA:                  -0.689
REMARK UNBOUND:                -0.585
REMARK SMILES Cc1ccc(C(C)C)cc1OCc1cc(-c2ccccc2)no1
REMARK SMILES IDX 11 1 10 2 2 3 3 4 4 5 9 6 5 7 1 8 6 9 7 10 8 11 12 12 13 13
REMARK SMILES IDX 14 14 23 15 15 16 22 17 16 18 17 19 21 20 18 21 20 22 19 23
REMARK H PARENT
ROOT
ATOM      1  O   UNL     1     -21.309  20.031 -24.206  1.00  0.00    -0.485 OA
ENDROOT
BRANCH   1   2
ATOM      2  C   UNL     1     -20.471  21.087 -24.459  1.00  0.00     0.123 A 
ATOM      3  C   UNL     1     -20.708  22.247 -23.704  1.00  0.00    -0.009 A 
ATOM      4  C   UNL     1     -19.884  23.366 -23.888  1.00  0.00     0.007 A 
ATOM      5  C   UNL     1     -18.831  23.331 -24.803  1.00  0.00     0.004 A 
ATOM      6  C   UNL     1     -19.404  21.057 -25.365  1.00  0.00     0.050 A 
ATOM      7  C   UNL     1     -18.575  22.176 -25.550  1.00  0.00    -0.042 A 
ATOM      8  C   UNL     1     -21.832  22.304 -22.707  1.00  0.00     0.048 C 
BRANCH   7   9
ATOM      9  C   UNL     1     -17.411  22.152 -26.527  1.00  0.00     0.013 C 
ATOM     10  C   UNL     1     -16.137  22.720 -25.895  1.00  0.00     0.012 C 
ATOM     11  C   UNL     1     -17.168  20.747 -27.080  1.00  0.00     0.012 C 
ENDBRANCH   7   9
ENDBRANCH   1   2
BRANCH   1  12
ATOM     12  C   UNL     1     -20.758  18.855 -23.607  1.00  0.00     0.307 C 
BRANCH  12  13
ATOM     13  C   UNL     1     -21.139  17.673 -24.412  1.00  0.00     0.174 A 
ATOM     14  C   UNL     1     -20.655  17.073 -25.548  1.00  0.00     0.081 A 
ATOM     15  O   UNL     1     -22.220  16.978 -23.976  1.00  0.00    -0.357 OA
ATOM     16  C   UNL     1     -21.520  15.971 -25.785  1.00  0.00     0.114 A 
ATOM     17  N   UNL     1     -22.460  15.919 -24.824  1.00  0.00    -0.079 NA
BRANCH  16  18
ATOM     18  C   UNL     1     -21.472  14.990 -26.874  1.00  0.00     0.004 A 
ATOM     19  C   UNL     1     -22.627  14.282 -27.249  1.00  0.00     0.010 A 
ATOM     20  C   UNL     1     -20.281  14.734 -27.570  1.00  0.00     0.010 A 
ATOM     21  C   UNL     1     -22.590  13.345 -28.286  1.00  0.00     0.001 A 
ATOM     22  C   UNL     1     -20.245  13.796 -28.607  1.00  0.00     0.001 A 
ATOM     23  C   UNL     1     -21.399  13.102 -28.963  1.00  0.00     0.000 A 
ENDBRANCH  16  18
ENDBRANCH  12  13
ENDBRANCH   1  12
TORSDOF 5
ENDMDL
MODEL 8
REMARK VINA RESULT:    -7.075      3.583      4.817
REMARK INTER + INTRA:          -9.728
REMARK INTER:                  -8.840
REMARK INTRA:                  -0.888
REMARK UNBOUND:                -0.585
REMARK SMILES Cc1ccc(C(C)C)cc1OCc1cc(-c2ccccc2)no1
REMARK SMILES IDX 11 1 10 2 2 3 3 4 4 5 9 6 5 7 1 8 6 9 7 10 8 11 12 12 13 13
REMARK SMILES IDX 14 14 23 15 15 16 22 17 16 18 17 19 21 20 18 21 20 22 19 23
REMARK H PARENT
ROOT
ATOM      1  O   UNL     1     -23.159  16.985 -25.535  1.00  0.00    -0.485 OA
ENDROOT
BRANCH   1   2
ATOM      2  C   UNL     1     -22.233  16.079 -25.087  1.00  0.00     0.123 A 
ATOM      3  C   UNL     1     -21.593  15.320 -26.082  1.00  0.00    -0.009 A 
ATOM      4  C   UNL     1     -20.619  14.383 -25.710  1.00  0.00     0.007 A 
ATOM      5  C   UNL     1     -20.276  14.209 -24.369  1.00  0.00     0.004 A 
ATOM      6  C   UNL     1     -21.872  15.906 -23.746  1.00  0.00     0.050 A 
ATOM      7  C   UNL     1     -20.893  14.969 -23.370  1.00  0.00    -0.042 A 
ATOM      8  C   UNL     1     -21.943  15.497 -27.533  1.00  0.00     0.048 C 
BRANCH   7   9
ATOM      9  C   UNL     1     -20.491  14.778 -21.918  1.00  0.00     0.013 C 
ATOM     10  C   UNL     1     -21.609  14.114 -21.109  1.00  0.00     0.012 C 
ATOM     11  C   UNL     1     -19.185  13.989 -21.793  1.00  0.00     0.012 C 
ENDBRANCH   7   9
ENDBRANCH   1   2
BRANCH   1  12
ATOM     12  C   UNL     1     -23.165  18.293 -24.955  1.00  0.00     0.307 C 
BRANCH  12  13
ATOM     13  C   UNL     1     -22.016  19.064 -25.478  1.00  0.00     0.174 A 
ATOM     14  C   UNL     1     -20.966  19.749 -24.917  1.00  0.00     0.081 A 
ATOM     15  O   UNL     1     -21.927  19.157 -26.829  1.00  0.00    -0.357 OA
ATOM     16  C   UNL     1     -20.235  20.276 -26.015  1.00  0.00     0.114 A 
ATOM     17  N   UNL     1     -20.822  19.907 -27.168  1.00  0.00    -0.079 NA
BRANCH  16  18
ATOM     18  C   UNL     1     -19.022  21.100 -25.994  1.00  0.00     0.004 A 
ATOM     19  C   UNL     1     -18.993  22.310 -25.280  1.00  0.00     0.010 A 
ATOM     20  C   UNL     1     -17.864  20.705 -26.679  1.00  0.00     0.010 A 
ATOM     21  C   UNL     1     -17.841  23.102 -25.256  1.00  0.00     0.001 A 
ATOM     22  C   UNL     1     -16.711  21.497 -26.654  1.00  0.00     0.001 A 
ATOM     23  C   UNL     1     -16.701  22.695 -25.944  1.00  0.00     0.000 A 
ENDBRANCH  16  18
ENDBRANCH  12  13
ENDBRANCH   1  12
TORSDOF 5
ENDMDL
