MODEL 1
REMARK VINA RESULT:    -5.058      0.000      0.000
REMARK INTER + INTRA:          -6.646
REMARK INTER:                  -6.093
REMARK INTRA:                  -0.553
REMARK UNBOUND:                -0.553
REMARK SMILES CC(=O)Oc1ccccc1C(=O)O
REMARK SMILES IDX 5 1 6 2 7 3 8 4 9 5 10 6 4 7 2 8 3 9 1 10 11 11 12 12 13 13
REMARK H PARENT 13 14
ROOT
ATOM      1  C   UNL     1       6.095 -26.005  20.265  1.00  0.00     0.145 A 
ATOM      2  C   UNL     1       6.458 -26.124  21.611  1.00  0.00     0.048 A 
ATOM      3  C   UNL     1       7.802 -26.257  21.954  1.00  0.00     0.004 A 
ATOM      4  C   UNL     1       8.776 -26.284  20.955  1.00  0.00     0.001 A 
ATOM      5  C   UNL     1       8.408 -26.184  19.609  1.00  0.00     0.019 A 
ATOM      6  C   UNL     1       7.059 -26.050  19.247  1.00  0.00     0.102 A 
ENDROOT
BRANCH   1   7
ATOM      7  O   UNL     1       4.729 -25.904  19.988  1.00  0.00    -0.426 OA
BRANCH   7   8
ATOM      8  C   UNL     1       4.243 -24.612  20.159  1.00  0.00     0.308 C 
ATOM      9  O   UNL     1       4.641 -23.601  19.595  1.00  0.00    -0.252 OA
ATOM     10  C   UNL     1       3.148 -24.637  21.183  1.00  0.00     0.139 C 
ENDBRANCH   7   8
ENDBRANCH   1   7
BRANCH   6  11
ATOM     11  C   UNL     1       6.657 -25.972  17.817  1.00  0.00     0.339 C 
ATOM     12  O   UNL     1       6.956 -25.106  17.016  1.00  0.00    -0.246 OA
BRANCH  11  13
ATOM     13  O   UNL     1       5.876 -27.004  17.444  1.00  0.00    -0.478 OA
ATOM     14  H   UNL     1       6.511 -27.737  17.301  1.00  0.00     0.297 HD
ENDBRANCH  11  13
ENDBRANCH   6  11
TORSDOF 4
ENDMDL
MODEL 2
REMARK VINA RESULT:    -5.025      1.618      3.472
REMARK INTER + INTRA:          -6.606
REMARK INTER:                  -6.079
REMARK INTRA:                  -0.527
REMARK UNBOUND:                -0.553
REMARK SMILES CC(=O)Oc1ccccc1C(=O)O
REMARK SMILES IDX 5 1 6 2 7 3 8 4 9 5 10 6 4 7 2 8 3 9 1 10 11 11 12 12 13 13
REMARK H PARENT 13 14
ROOT
ATOM      1  C   UNL     1       6.256 -26.574  20.354  1.00  0.00     0.145 A 
ATOM      2  C   UNL     1       5.754 -26.379  21.646  1.00  0.00     0.048 A 
ATOM      3  C   UNL     1       4.668 -25.529  21.843  1.00  0.00     0.004 A 
ATOM      4  C   UNL     1       4.095 -24.867  20.757  1.00  0.00     0.001 A 
ATOM      5  C   UNL     1       4.611 -25.050  19.469  1.00  0.00     0.019 A 
ATOM      6  C   UNL     1       5.705 -25.902  19.253  1.00  0.00     0.102 A 
ENDROOT
BRANCH   1   7
ATOM      7  O   UNL     1       7.364 -27.416  20.230  1.00  0.00    -0.426 OA
BRANCH   7   8
ATOM      8  C   UNL     1       8.554 -26.790  20.588  1.00  0.00     0.308 C 
ATOM      9  O   UNL     1       8.950 -25.698  20.201  1.00  0.00    -0.252 OA
ATOM     10  C   UNL     1       9.312 -27.685  21.522  1.00  0.00     0.139 C 
ENDBRANCH   7   8
ENDBRANCH   1   7
BRANCH   6  11
ATOM     11  C   UNL     1       6.277 -26.078  17.892  1.00  0.00     0.339 C 
ATOM     12  O   UNL     1       6.851 -25.239  17.223  1.00  0.00    -0.246 OA
BRANCH  11  13
ATOM     13  O   UNL     1       6.099 -27.325  17.415  1.00  0.00    -0.478 OA
ATOM     14  H   UNL     1       5.216 -27.288  16.992  1.00  0.00     0.297 HD
ENDBRANCH  11  13
ENDBRANCH   6  11
TORSDOF 4
ENDMDL
MODEL 3
REMARK VINA RESULT:    -4.958      6.436      7.831
REMARK INTER + INTRA:          -6.525
REMARK INTER:                  -5.811
REMARK INTRA:                  -0.714
REMARK UNBOUND:                -0.553
REMARK SMILES CC(=O)Oc1ccccc1C(=O)O
REMARK SMILES IDX 5 1 6 2 7 3 8 4 9 5 10 6 4 7 2 8 3 9 1 10 11 11 12 12 13 13
REMARK H PARENT 13 14
ROOT
ATOM      1  C   UNL     1      11.820 -26.295  24.076  1.00  0.00     0.145 A 
ATOM      2  C   UNL     1      11.058 -25.137  23.888  1.00  0.00     0.048 A 
ATOM      3  C   UNL     1      11.639 -24.016  23.298  1.00  0.00     0.004 A 
ATOM      4  C   UNL     1      12.979 -24.050  22.911  1.00  0.00     0.001 A 
ATOM      5  C   UNL     1      13.744 -25.203  23.117  1.00  0.00     0.019 A 
ATOM      6  C   UNL     1      13.174 -26.340  23.710  1.00  0.00     0.102 A 
ENDROOT
BRANCH   1   7
ATOM      7  O   UNL     1      11.185 -27.372  24.699  1.00  0.00    -0.426 OA
BRANCH   7   8
ATOM      8  C   UNL     1      10.349 -28.072  23.836  1.00  0.00     0.308 C 
ATOM      9  O   UNL     1      10.660 -28.569  22.761  1.00  0.00    -0.252 OA
ATOM     10  C   UNL     1       8.968 -28.108  24.419  1.00  0.00     0.139 C 
ENDBRANCH   7   8
ENDBRANCH   1   7
BRANCH   6  11
ATOM     11  C   UNL     1      13.988 -27.559  23.959  1.00  0.00     0.339 C 
ATOM     12  O   UNL     1      14.875 -27.694  24.781  1.00  0.00    -0.246 OA
BRANCH  11  13
ATOM     13  O   UNL     1      13.651 -28.579  23.147  1.00  0.00    -0.478 OA
ATOM     14  H   UNL     1      14.344 -28.564  22.454  1.00  0.00     0.297 HD
ENDBRANCH  11  13
ENDBRANCH   6  11
TORSDOF 4
ENDMDL
MODEL 4
REMARK VINA RESULT:    -4.706      5.132      6.293
REMARK INTER + INTRA:          -6.222
REMARK INTER:                  -5.505
REMARK INTRA:                  -0.717
REMARK UNBOUND:                -0.553
REMARK SMILES CC(=O)Oc1ccccc1C(=O)O
REMARK SMILES IDX 5 1 6 2 7 3 8 4 9 5 10 6 4 7 2 8 3 9 1 10 11 11 12 12 13 13
REMARK H PARENT 13 14
ROOT
ATOM      1  C   UNL     1      11.803 -25.856  22.761  1.00  0.00     0.145 A 
ATOM      2  C   UNL     1      13.004 -25.194  23.039  1.00  0.00     0.048 A 
ATOM      3  C   UNL     1      14.217 -25.821  22.762  1.00  0.00     0.004 A 
ATOM      4  C   UNL     1      14.229 -27.107  22.222  1.00  0.00     0.001 A 
ATOM      5  C   UNL     1      13.027 -27.773  21.962  1.00  0.00     0.019 A 
ATOM      6  C   UNL     1      11.796 -27.157  22.236  1.00  0.00     0.102 A 
ENDROOT
BRANCH   1   7
ATOM      7  O   UNL     1      10.623 -25.183  23.090  1.00  0.00    -0.426 OA
BRANCH   7   8
ATOM      8  C   UNL     1      10.319 -24.167  22.190  1.00  0.00     0.308 C 
ATOM      9  O   UNL     1      10.153 -24.285  20.984  1.00  0.00    -0.252 OA
ATOM     10  C   UNL     1      10.247 -22.867  22.934  1.00  0.00     0.139 C 
ENDBRANCH   7   8
ENDBRANCH   1   7
BRANCH   6  11
ATOM     11  C   UNL     1      10.515 -27.870  21.990  1.00  0.00     0.339 C 
ATOM     12  O   UNL     1      10.080 -28.830  22.599  1.00  0.00    -0.246 OA
BRANCH  11  13
ATOM     13  O   UNL     1       9.817 -27.340  20.966  1.00  0.00    -0.478 OA
ATOM     14  H   UNL     1       8.970 -27.069  21.376  1.00  0.00     0.297 HD
ENDBRANCH  11  13
ENDBRANCH   6  11
TORSDOF 4
ENDMDL
MODEL 5
REMARK VINA RESULT:    -4.689      6.362      8.364
REMARK INTER + INTRA:          -6.201
REMARK INTER:                  -5.750
REMARK INTRA:                  -0.451
REMARK UNBOUND:                -0.553
REMARK SMILES CC(=O)Oc1ccccc1C(=O)O
REMARK SMILES IDX 5 1 6 2 7 3 8 4 9 5 10 6 4 7 2 8 3 9 1 10 11 11 12 12 13 13
REMARK H PARENT 13 14
ROOT
ATOM      1  C   UNL     1      12.431 -25.770  23.401  1.00  0.00     0.145 A 
ATOM      2  C   UNL     1      13.427 -24.937  22.881  1.00  0.00     0.048 A 
ATOM      3  C   UNL     1      13.269 -23.553  22.939  1.00  0.00     0.004 A 
ATOM      4  C   UNL     1      12.116 -23.008  23.504  1.00  0.00     0.001 A 
ATOM      5  C   UNL     1      11.114 -23.844  24.007  1.00  0.00     0.019 A 
ATOM      6  C   UNL     1      11.257 -25.239  23.955  1.00  0.00     0.102 A 
ENDROOT
BRANCH   1   7
ATOM      7  O   UNL     1      12.638 -27.147  23.284  1.00  0.00    -0.426 OA
BRANCH   7   8
ATOM      8  C   UNL     1      13.784 -27.573  23.947  1.00  0.00     0.308 C 
ATOM      9  O   UNL     1      14.197 -27.171  25.027  1.00  0.00    -0.252 OA
ATOM     10  C   UNL     1      14.473 -28.609  23.108  1.00  0.00     0.139 C 
ENDBRANCH   7   8
ENDBRANCH   1   7
BRANCH   6  11
ATOM     11  C   UNL     1      10.183 -26.135  24.461  1.00  0.00     0.339 C 
ATOM     12  O   UNL     1       9.023 -26.169  24.096  1.00  0.00    -0.246 OA
BRANCH  11  13
ATOM     13  O   UNL     1      10.618 -26.966  25.427  1.00  0.00    -0.478 OA
ATOM     14  H   UNL     1      11.166 -27.619  24.945  1.00  0.00     0.297 HD
ENDBRANCH  11  13
ENDBRANCH   6  11
TORSDOF 4
ENDMDL
MODEL 6
REMARK VINA RESULT:    -4.593      5.548      6.866
REMARK INTER + INTRA:          -6.085
REMARK INTER:                  -5.367
REMARK INTRA:                  -0.718
REMARK UNBOUND:                -0.553
REMARK SMILES CC(=O)Oc1ccccc1C(=O)O
REMARK SMILES IDX 5 1 6 2 7 3 8 4 9 5 10 6 4 7 2 8 3 9 1 10 11 11 12 12 13 13
REMARK H PARENT 13 14
ROOT
ATOM      1  C   UNL     1      11.846 -25.286  23.968  1.00  0.00     0.145 A 
ATOM      2  C   UNL     1      12.094 -26.511  24.597  1.00  0.00     0.048 A 
ATOM      3  C   UNL     1      13.245 -27.229  24.280  1.00  0.00     0.004 A 
ATOM      4  C   UNL     1      14.135 -26.732  23.328  1.00  0.00     0.001 A 
ATOM      5  C   UNL     1      13.875 -25.516  22.687  1.00  0.00     0.019 A 
ATOM      6  C   UNL     1      12.721 -24.780  22.995  1.00  0.00     0.102 A 
ENDROOT
BRANCH   1   7
ATOM      7  O   UNL     1      10.660 -24.631  24.311  1.00  0.00    -0.426 OA
BRANCH   7   8
ATOM      8  C   UNL     1       9.532 -25.265  23.800  1.00  0.00     0.308 C 
ATOM      9  O   UNL     1       9.318 -25.543  22.628  1.00  0.00    -0.252 OA
ATOM     10  C   UNL     1       8.580 -25.541  24.925  1.00  0.00     0.139 C 
ENDBRANCH   7   8
ENDBRANCH   1   7
BRANCH   6  11
ATOM     11  C   UNL     1      12.423 -23.502  22.297  1.00  0.00     0.339 C 
ATOM     12  O   UNL     1      12.984 -22.433  22.450  1.00  0.00    -0.246 OA
BRANCH  11  13
ATOM     13  O   UNL     1      11.407 -23.618  21.419  1.00  0.00    -0.478 OA
ATOM     14  H   UNL     1      11.855 -23.799  20.567  1.00  0.00     0.297 HD
ENDBRANCH  11  13
ENDBRANCH   6  11
TORSDOF 4
ENDMDL
MODEL 7
REMARK VINA RESULT:    -4.526      5.531      7.478
REMARK INTER + INTRA:          -6.005
REMARK INTER:                  -5.339
REMARK INTRA:                  -0.666
REMARK UNBOUND:                -0.553
REMARK SMILES CC(=O)Oc1ccccc1C(=O)O
REMARK SMILES IDX 5 1 6 2 7 3 8 4 9 5 10 6 4 7 2 8 3 9 1 10 11 11 12 12 13 13
REMARK H PARENT 13 14
ROOT
ATOM      1  C   UNL     1      12.095 -26.219  23.100  1.00  0.00     0.145 A 
ATOM      2  C   UNL     1      12.956 -25.148  23.361  1.00  0.00     0.048 A 
ATOM      3  C   UNL     1      12.670 -23.889  22.835  1.00  0.00     0.004 A 
ATOM      4  C   UNL     1      11.537 -23.707  22.042  1.00  0.00     0.001 A 
ATOM      5  C   UNL     1      10.688 -24.785  21.768  1.00  0.00     0.019 A 
ATOM      6  C   UNL     1      10.962 -26.059  22.289  1.00  0.00     0.102 A 
ENDROOT
BRANCH   1   7
ATOM      7  O   UNL     1      12.455 -27.460  23.633  1.00  0.00    -0.426 OA
BRANCH   7   8
ATOM      8  C   UNL     1      13.638 -27.952  23.091  1.00  0.00     0.308 C 
ATOM      9  O   UNL     1      13.868 -28.161  21.908  1.00  0.00    -0.252 OA
ATOM     10  C   UNL     1      14.607 -28.218  24.204  1.00  0.00     0.139 C 
ENDBRANCH   7   8
ENDBRANCH   1   7
BRANCH   6  11
ATOM     11  C   UNL     1      10.081 -27.215  21.978  1.00  0.00     0.339 C 
ATOM     12  O   UNL     1       8.885 -27.305  22.185  1.00  0.00    -0.246 OA
BRANCH  11  13
ATOM     13  O   UNL     1      10.751 -28.237  21.411  1.00  0.00    -0.478 OA
ATOM     14  H   UNL     1      11.382 -28.517  22.107  1.00  0.00     0.297 HD
ENDBRANCH  11  13
ENDBRANCH   6  11
TORSDOF 4
ENDMDL
MODEL 8
REMARK VINA RESULT:    -4.502      7.515      8.701
REMARK INTER + INTRA:          -5.977
REMARK INTER:                  -5.413
REMARK INTRA:                  -0.563
REMARK UNBOUND:                -0.553
REMARK SMILES CC(=O)Oc1ccccc1C(=O)O
REMARK SMILES IDX 5 1 6 2 7 3 8 4 9 5 10 6 4 7 2 8 3 9 1 10 11 11 12 12 13 13
REMARK H PARENT 13 14
ROOT
ATOM      1  C   UNL     1       6.527 -31.645  24.145  1.00  0.00     0.145 A 
ATOM      2  C   UNL     1       7.696 -31.125  23.578  1.00  0.00     0.048 A 
ATOM      3  C   UNL     1       8.117 -31.575  22.328  1.00  0.00     0.004 A 
ATOM      4  C   UNL     1       7.380 -32.549  21.655  1.00  0.00     0.001 A 
ATOM      5  C   UNL     1       6.222 -33.081  22.232  1.00  0.00     0.019 A 
ATOM      6  C   UNL     1       5.785 -32.639  23.490  1.00  0.00     0.102 A 
ENDROOT
BRANCH   1   7
ATOM      7  O   UNL     1       6.178 -31.172  25.412  1.00  0.00    -0.426 OA
BRANCH   7   8
ATOM      8  C   UNL     1       6.986 -31.690  26.418  1.00  0.00     0.308 C 
ATOM      9  O   UNL     1       7.179 -32.873  26.664  1.00  0.00    -0.252 OA
ATOM     10  C   UNL     1       7.584 -30.553  27.193  1.00  0.00     0.139 C 
ENDBRANCH   7   8
ENDBRANCH   1   7
BRANCH   6  11
ATOM     11  C   UNL     1       4.571 -33.220  24.123  1.00  0.00     0.339 C 
ATOM     12  O   UNL     1       4.384 -34.385  24.420  1.00  0.00    -0.246 OA
BRANCH  11  13
ATOM     13  O   UNL     1       3.619 -32.296  24.358  1.00  0.00    -0.478 OA
ATOM     14  H   UNL     1       3.541 -31.820  23.506  1.00  0.00     0.297 HD
ENDBRANCH  11  13
ENDBRANCH   6  11
TORSDOF 4
ENDMDL
