MODEL 1
REMARK VINA RESULT:    -7.032      0.000      0.000
REMARK INTER + INTRA:          -9.714
REMARK INTER:                  -9.087
REMARK INTRA:                  -0.627
REMARK UNBOUND:                -0.627
REMARK SMILES Cc1ccc(C(C)C)cc1OCc1cc(-c2ccccc2)no1
REMARK SMILES IDX 11 1 10 2 2 3 3 4 4 5 9 6 5 7 1 8 6 9 7 10 8 11 12 12 13 13
REMARK SMILES IDX 14 14 23 15 15 16 22 17 16 18 17 19 21 20 18 21 20 22 19 23
REMARK H PARENT
ROOT
ATOM      1  O   UNL     1      11.692 -27.375  24.995  1.00  0.00    -0.485 OA
ENDROOT
BRANCH   1   2
ATOM      2  C   UNL     1      12.321 -26.401  24.263  1.00  0.00     0.123 A 
ATOM      3  C   UNL     1      13.489 -26.802  23.593  1.00  0.00    -0.009 A 
ATOM      4  C   UNL     1      14.184 -25.871  22.808  1.00  0.00     0.007 A 
ATOM      5  C   UNL     1      13.719 -24.562  22.679  1.00  0.00     0.004 A 
ATOM      6  C   UNL     1      11.855 -25.089  24.117  1.00  0.00     0.050 A 
ATOM      7  C   UNL     1      12.548 -24.155  23.327  1.00  0.00    -0.042 A 
ATOM      8  C   UNL     1      14.003 -28.209  23.712  1.00  0.00     0.048 C 
BRANCH   7   9
ATOM      9  C   UNL     1      12.049 -22.730  23.159  1.00  0.00     0.013 C 
ATOM     10  C   UNL     1      10.792 -22.473  23.996  1.00  0.00     0.012 C 
ATOM     11  C   UNL     1      13.139 -21.707  23.483  1.00  0.00     0.012 C 
ENDBRANCH   7   9
ENDBRANCH   1   2
BRANCH   1  12
ATOM     12  C   UNL     1      10.263 -27.351  25.070  1.00  0.00     0.307 C 
BRANCH  12  13
ATOM     13  C   UNL     1       9.701 -27.479  23.708  1.00  0.00     0.174 A 
ATOM     14  C   UNL     1       8.880 -26.711  22.918  1.00  0.00     0.081 A 
ATOM     15  O   UNL     1      10.036 -28.604  23.027  1.00  0.00    -0.357 OA
ATOM     16  C   UNL     1       8.727 -27.448  21.713  1.00  0.00     0.114 A 
ATOM     17  N   UNL     1       9.435 -28.590  21.787  1.00  0.00    -0.079 NA
BRANCH  16  18
ATOM     18  C   UNL     1       7.944 -27.101  20.523  1.00  0.00     0.004 A 
ATOM     19  C   UNL     1       6.664 -27.647  20.324  1.00  0.00     0.010 A 
ATOM     20  C   UNL     1       8.445 -26.216  19.556  1.00  0.00     0.010 A 
ATOM     21  C   UNL     1       5.912 -27.321  19.192  1.00  0.00     0.001 A 
ATOM     22  C   UNL     1       7.693 -25.891  18.423  1.00  0.00     0.001 A 
ATOM     23  C   UNL     1       6.428 -26.444  18.241  1.00  0.00     0.000 A 
ENDBRANCH  16  18
ENDBRANCH  12  13
ENDBRANCH   1  12
TORSDOF 5
ENDMDL
MODEL 2
REMARK VINA RESULT:    -6.785      3.199      4.742
REMARK INTER + INTRA:          -9.395
REMARK INTER:                  -8.671
REMARK INTRA:                  -0.724
REMARK UNBOUND:                -0.627
REMARK SMILES Cc1ccc(C(C)C)cc1OCc1cc(-c2ccccc2)no1
REMARK SMILES IDX 11 1 10 2 2 3 3 4 4 5 9 6 5 7 1 8 6 9 7 10 8 11 12 12 13 13
REMARK SMILES IDX 14 14 23 15 15 16 22 17 16 18 17 19 21 20 18 21 20 22 19 23
REMARK H PARENT
ROOT
ATOM      1  O   UNL     1       9.558 -26.066  24.230  1.00  0.00    -0.485 OA
ENDROOT
BRANCH   1   2
ATOM      2  C   UNL     1      10.820 -25.682  23.852  1.00  0.00     0.123 A 
ATOM      3  C   UNL     1      11.049 -24.296  23.818  1.00  0.00    -0.009 A 
ATOM      4  C   UNL     1      12.317 -23.819  23.460  1.00  0.00     0.007 A 
ATOM      5  C   UNL     1      13.348 -24.706  23.149  1.00  0.00     0.004 A 
ATOM      6  C   UNL     1      11.864 -26.564  23.551  1.00  0.00     0.050 A 
ATOM      7  C   UNL     1      13.138 -26.088  23.194  1.00  0.00    -0.042 A 
ATOM      8  C   UNL     1       9.954 -23.324  24.156  1.00  0.00     0.048 C 
BRANCH   7   9
ATOM      9  C   UNL     1      14.280 -27.037  22.871  1.00  0.00     0.013 C 
ATOM     10  C   UNL     1      14.490 -28.063  23.989  1.00  0.00     0.012 C 
ATOM     11  C   UNL     1      14.072 -27.731  21.524  1.00  0.00     0.012 C 
ENDBRANCH   7   9
ENDBRANCH   1   2
BRANCH   1  12
ATOM     12  C   UNL     1       9.415 -26.848  25.420  1.00  0.00     0.307 C 
BRANCH  12  13
ATOM     13  C   UNL     1       8.734 -28.119  25.089  1.00  0.00     0.174 A 
ATOM     14  C   UNL     1       8.585 -28.877  23.954  1.00  0.00     0.081 A 
ATOM     15  O   UNL     1       8.078 -28.727  26.110  1.00  0.00    -0.357 OA
ATOM     16  C   UNL     1       7.784 -29.983  24.346  1.00  0.00     0.114 A 
ATOM     17  N   UNL     1       7.487 -29.885  25.654  1.00  0.00    -0.079 NA
BRANCH  16  18
ATOM     18  C   UNL     1       7.308 -31.102  23.526  1.00  0.00     0.004 A 
ATOM     19  C   UNL     1       7.891 -31.371  22.276  1.00  0.00     0.010 A 
ATOM     20  C   UNL     1       6.266 -31.932  23.966  1.00  0.00     0.010 A 
ATOM     21  C   UNL     1       7.442 -32.436  21.489  1.00  0.00     0.001 A 
ATOM     22  C   UNL     1       5.817 -32.997  23.178  1.00  0.00     0.001 A 
ATOM     23  C   UNL     1       6.404 -33.247  21.940  1.00  0.00     0.000 A 
ENDBRANCH  16  18
ENDBRANCH  12  13
ENDBRANCH   1  12
TORSDOF 5
ENDMDL
MODEL 3
REMARK VINA RESULT:    -6.775      4.024      6.254
REMARK INTER + INTRA:          -9.383
REMARK INTER:                  -8.471
REMARK INTRA:                  -0.912
REMARK UNBOUND:                -0.627
REMARK SMILES Cc1ccc(C(C)C)cc1OCc1cc(-c2ccccc2)no1
REMARK SMILES IDX 11 1 10 2 2 3 3 4 4 5 9 6 5 7 1 8 6 9 7 10 8 11 12 12 13 13
REMARK SMILES IDX 14 14 23 15 15 16 22 17 16 18 17 19 21 20 18 21 20 22 19 23
REMARK H PARENT
ROOT
ATOM      1  O   UNL     1       8.669 -27.751  22.592  1.00  0.00    -0.485 OA
ENDROOT
BRANCH   1   2
ATOM      2  C   UNL     1       9.914 -27.535  23.125  1.00  0.00     0.123 A 
ATOM      3  C   UNL     1       9.936 -27.036  24.438  1.00  0.00    -0.009 A 
ATOM      4  C   UNL     1      11.169 -26.804  25.064  1.00  0.00     0.007 A 
ATOM      5  C   UNL     1      12.365 -27.074  24.399  1.00  0.00     0.004 A 
ATOM      6  C   UNL     1      11.120 -27.814  22.471  1.00  0.00     0.050 A 
ATOM      7  C   UNL     1      12.357 -27.586  23.097  1.00  0.00    -0.042 A 
ATOM      8  C   UNL     1       8.658 -26.746  25.176  1.00  0.00     0.048 C 
BRANCH   7   9
ATOM      9  C   UNL     1      13.671 -27.890  22.398  1.00  0.00     0.013 C 
ATOM     10  C   UNL     1      14.435 -26.608  22.055  1.00  0.00     0.012 C 
ATOM     11  C   UNL     1      14.541 -28.841  23.222  1.00  0.00     0.012 C 
ENDBRANCH   7   9
ENDBRANCH   1   2
BRANCH   1  12
ATOM     12  C   UNL     1       8.432 -28.978  21.897  1.00  0.00     0.307 C 
BRANCH  12  13
ATOM     13  C   UNL     1       8.098 -30.036  22.875  1.00  0.00     0.174 A 
ATOM     14  C   UNL     1       7.440 -30.076  24.079  1.00  0.00     0.081 A 
ATOM     15  O   UNL     1       8.522 -31.289  22.567  1.00  0.00    -0.357 OA
ATOM     16  C   UNL     1       7.499 -31.434  24.493  1.00  0.00     0.114 A 
ATOM     17  N   UNL     1       8.151 -32.160  23.568  1.00  0.00    -0.079 NA
BRANCH  16  18
ATOM     18  C   UNL     1       6.962 -32.041  25.715  1.00  0.00     0.004 A 
ATOM     19  C   UNL     1       5.792 -32.818  25.673  1.00  0.00     0.010 A 
ATOM     20  C   UNL     1       7.598 -31.866  26.953  1.00  0.00     0.010 A 
ATOM     21  C   UNL     1       5.274 -33.399  26.834  1.00  0.00     0.001 A 
ATOM     22  C   UNL     1       7.079 -32.447  28.114  1.00  0.00     0.001 A 
ATOM     23  C   UNL     1       5.917 -33.212  28.054  1.00  0.00     0.000 A 
ENDBRANCH  16  18
ENDBRANCH  12  13
ENDBRANCH   1  12
TORSDOF 5
ENDMDL
MODEL 4
REMARK VINA RESULT:    -6.764      4.317      8.114
REMARK INTER + INTRA:          -9.369
REMARK INTER:                  -8.823
REMARK INTRA:                  -0.546
REMARK UNBOUND:                -0.627
REMARK SMILES Cc1ccc(C(C)C)cc1OCc1cc(-c2ccccc2)no1
REMARK SMILES IDX 11 1 10 2 2 3 3 4 4 5 9 6 5 7 1 8 6 9 7 10 8 11 12 12 13 13
REMARK SMILES IDX 14 14 23 15 15 16 22 17 16 18 17 19 21 20 18 21 20 22 19 23
REMARK H PARENT
ROOT
ATOM      1  O   UNL     1       7.762 -30.803  22.523  1.00  0.00    -0.485 OA
ENDROOT
BRANCH   1   2
ATOM      2  C   UNL     1       7.009 -31.546  23.396  1.00  0.00     0.123 A 
ATOM      3  C   UNL     1       6.153 -32.492  22.808  1.00  0.00    -0.009 A 
ATOM      4  C   UNL     1       5.361 -33.305  23.630  1.00  0.00     0.007 A 
ATOM      5  C   UNL     1       5.426 -33.189  25.019  1.00  0.00     0.004 A 
ATOM      6  C   UNL     1       7.077 -31.446  24.790  1.00  0.00     0.050 A 
ATOM      7  C   UNL     1       6.287 -32.263  25.618  1.00  0.00    -0.042 A 
ATOM      8  C   UNL     1       6.072 -32.638  21.314  1.00  0.00     0.048 C 
BRANCH   7   9
ATOM      9  C   UNL     1       6.357 -32.166  27.132  1.00  0.00     0.013 C 
ATOM     10  C   UNL     1       5.603 -33.318  27.803  1.00  0.00     0.012 C 
ATOM     11  C   UNL     1       7.803 -32.098  27.627  1.00  0.00     0.012 C 
ENDBRANCH   7   9
ENDBRANCH   1   2
BRANCH   1  12
ATOM     12  C   UNL     1       7.350 -29.462  22.243  1.00  0.00     0.307 C 
BRANCH  12  13
ATOM     13  C   UNL     1       8.547 -28.610  22.068  1.00  0.00     0.174 A 
ATOM     14  C   UNL     1       9.810 -28.583  22.607  1.00  0.00     0.081 A 
ATOM     15  O   UNL     1       8.429 -27.591  21.180  1.00  0.00    -0.357 OA
ATOM     16  C   UNL     1      10.452 -27.473  21.997  1.00  0.00     0.114 A 
ATOM     17  N   UNL     1       9.609 -26.882  21.131  1.00  0.00    -0.079 NA
BRANCH  16  18
ATOM     18  C   UNL     1      11.814 -26.974  22.213  1.00  0.00     0.004 A 
ATOM     19  C   UNL     1      12.031 -25.666  22.679  1.00  0.00     0.010 A 
ATOM     20  C   UNL     1      12.932 -27.784  21.964  1.00  0.00     0.010 A 
ATOM     21  C   UNL     1      13.326 -25.183  22.886  1.00  0.00     0.001 A 
ATOM     22  C   UNL     1      14.228 -27.300  22.171  1.00  0.00     0.001 A 
ATOM     23  C   UNL     1      14.424 -26.000  22.631  1.00  0.00     0.000 A 
ENDBRANCH  16  18
ENDBRANCH  12  13
ENDBRANCH   1  12
TORSDOF 5
ENDMDL
MODEL 5
REMARK VINA RESULT:    -6.747      3.666      6.298
REMARK INTER + INTRA:          -9.346
REMARK INTER:                  -8.516
REMARK INTRA:                  -0.830
REMARK UNBOUND:                -0.627
REMARK SMILES Cc1ccc(C(C)C)cc1OCc1cc(-c2ccccc2)no1
REMARK SMILES IDX 11 1 10 2 2 3 3 4 4 5 9 6 5 7 1 8 6 9 7 10 8 11 12 12 13 13
REMARK SMILES IDX 14 14 23 15 15 16 22 17 16 18 17 19 21 20 18 21 20 22 19 23
REMARK H PARENT
ROOT
ATOM      1  O   UNL     1       8.578 -26.206  19.846  1.00  0.00    -0.485 OA
ENDROOT
BRANCH   1   2
ATOM      2  C   UNL     1       7.529 -25.328  19.948  1.00  0.00     0.123 A 
ATOM      3  C   UNL     1       6.402 -25.633  19.166  1.00  0.00    -0.009 A 
ATOM      4  C   UNL     1       5.279 -24.797  19.225  1.00  0.00     0.007 A 
ATOM      5  C   UNL     1       5.270 -23.678  20.058  1.00  0.00     0.004 A 
ATOM      6  C   UNL     1       7.505 -24.211  20.790  1.00  0.00     0.050 A 
ATOM      7  C   UNL     1       6.379 -23.372  20.854  1.00  0.00    -0.042 A 
ATOM      8  C   UNL     1       6.389 -26.838  18.267  1.00  0.00     0.048 C 
BRANCH   7   9
ATOM      9  C   UNL     1       6.340 -22.160  21.768  1.00  0.00     0.013 C 
ATOM     10  C   UNL     1       7.599 -21.301  21.615  1.00  0.00     0.012 C 
ATOM     11  C   UNL     1       5.078 -21.324  21.545  1.00  0.00     0.012 C 
ENDBRANCH   7   9
ENDBRANCH   1   2
BRANCH   1  12
ATOM     12  C   UNL     1       9.344 -26.487  21.021  1.00  0.00     0.307 C 
BRANCH  12  13
ATOM     13  C   UNL     1       8.948 -27.807  21.558  1.00  0.00     0.174 A 
ATOM     14  C   UNL     1       7.782 -28.532  21.598  1.00  0.00     0.081 A 
ATOM     15  O   UNL     1       9.926 -28.519  22.173  1.00  0.00    -0.357 OA
ATOM     16  C   UNL     1       8.109 -29.728  22.290  1.00  0.00     0.114 A 
ATOM     17  N   UNL     1       9.411 -29.713  22.629  1.00  0.00    -0.079 NA
BRANCH  16  18
ATOM     18  C   UNL     1       7.236 -30.858  22.626  1.00  0.00     0.004 A 
ATOM     19  C   UNL     1       6.943 -31.160  23.967  1.00  0.00     0.010 A 
ATOM     20  C   UNL     1       6.670 -31.661  21.625  1.00  0.00     0.010 A 
ATOM     21  C   UNL     1       6.113 -32.235  24.295  1.00  0.00     0.001 A 
ATOM     22  C   UNL     1       5.840 -32.737  21.954  1.00  0.00     0.001 A 
ATOM     23  C   UNL     1       5.562 -33.024  23.289  1.00  0.00     0.000 A 
ENDBRANCH  16  18
ENDBRANCH  12  13
ENDBRANCH   1  12
TORSDOF 5
ENDMDL
MODEL 6
REMARK VINA RESULT:    -6.672      2.830      4.567
REMARK INTER + INTRA:          -9.249
REMARK INTER:                  -8.588
REMARK INTRA:                  -0.661
REMARK UNBOUND:                -0.627
REMARK SMILES Cc1ccc(C(C)C)cc1OCc1cc(-c2ccccc2)no1
REMARK SMILES IDX 11 1 10 2 2 3 3 4 4 5 9 6 5 7 1 8 6 9 7 10 8 11 12 12 13 13
REMARK SMILES IDX 14 14 23 15 15 16 22 17 16 18 17 19 21 20 18 21 20 22 19 23
REMARK H PARENT
ROOT
ATOM      1  O   UNL     1       9.697 -24.984  21.943  1.00  0.00    -0.485 OA
ENDROOT
BRANCH   1   2
ATOM      2  C   UNL     1      11.004 -25.270  22.243  1.00  0.00     0.123 A 
ATOM      3  C   UNL     1      11.737 -24.224  22.829  1.00  0.00    -0.009 A 
ATOM      4  C   UNL     1      13.076 -24.439  23.182  1.00  0.00     0.007 A 
ATOM      5  C   UNL     1      13.678 -25.679  22.968  1.00  0.00     0.004 A 
ATOM      6  C   UNL     1      11.613 -26.514  22.044  1.00  0.00     0.050 A 
ATOM      7  C   UNL     1      12.954 -26.734  22.401  1.00  0.00    -0.042 A 
ATOM      8  C   UNL     1      11.106 -22.882  23.075  1.00  0.00     0.048 C 
BRANCH   7   9
ATOM      9  C   UNL     1      13.623 -28.082  22.194  1.00  0.00     0.013 C 
ATOM     10  C   UNL     1      14.470 -28.099  20.918  1.00  0.00     0.012 C 
ATOM     11  C   UNL     1      14.457 -28.491  23.409  1.00  0.00     0.012 C 
ENDBRANCH   7   9
ENDBRANCH   1   2
BRANCH   1  12
ATOM     12  C   UNL     1       8.683 -25.396  22.865  1.00  0.00     0.307 C 
BRANCH  12  13
ATOM     13  C   UNL     1       8.150 -26.711  22.447  1.00  0.00     0.174 A 
ATOM     14  C   UNL     1       8.364 -28.014  22.826  1.00  0.00     0.081 A 
ATOM     15  O   UNL     1       7.227 -26.691  21.452  1.00  0.00    -0.357 OA
ATOM     16  C   UNL     1       7.520 -28.790  21.988  1.00  0.00     0.114 A 
ATOM     17  N   UNL     1       6.832 -27.980  21.164  1.00  0.00    -0.079 NA
BRANCH  16  18
ATOM     18  C   UNL     1       7.356 -30.247  21.954  1.00  0.00     0.004 A 
ATOM     19  C   UNL     1       8.109 -31.071  22.808  1.00  0.00     0.010 A 
ATOM     20  C   UNL     1       6.447 -30.855  21.076  1.00  0.00     0.010 A 
ATOM     21  C   UNL     1       7.959 -32.460  22.781  1.00  0.00     0.001 A 
ATOM     22  C   UNL     1       6.297 -32.246  21.049  1.00  0.00     0.001 A 
ATOM     23  C   UNL     1       7.054 -33.047  21.901  1.00  0.00     0.000 A 
ENDBRANCH  16  18
ENDBRANCH  12  13
ENDBRANCH   1  12
TORSDOF 5
ENDMDL
MODEL 7
REMARK VINA RESULT:    -6.638      3.003      4.672
REMARK INTER + INTRA:          -9.205
REMARK INTER:                  -8.690
REMARK INTRA:                  -0.515
REMARK UNBOUND:                -0.627
REMARK SMILES Cc1ccc(C(C)C)cc1OCc1cc(-c2ccccc2)no1
REMARK SMILES IDX 11 1 10 2 2 3 3 4 4 5 9 6 5 7 1 8 6 9 7 10 8 11 12 12 13 13
REMARK SMILES IDX 14 14 23 15 15 16 22 17 16 18 17 19 21 20 18 21 20 22 19 23
REMARK H PARENT
ROOT
ATOM      1  O   UNL     1       9.336 -25.593  22.497  1.00  0.00    -0.485 OA
ENDROOT
BRANCH   1   2
ATOM      2  C   UNL     1      10.649 -25.218  22.631  1.00  0.00     0.123 A 
ATOM      3  C   UNL     1      10.875 -23.840  22.781  1.00  0.00    -0.009 A 
ATOM      4  C   UNL     1      12.187 -23.373  22.941  1.00  0.00     0.007 A 
ATOM      5  C   UNL     1      13.260 -24.265  22.964  1.00  0.00     0.004 A 
ATOM      6  C   UNL     1      11.731 -26.105  22.667  1.00  0.00     0.050 A 
ATOM      7  C   UNL     1      13.047 -25.641  22.832  1.00  0.00    -0.042 A 
ATOM      8  C   UNL     1       9.733 -22.863  22.767  1.00  0.00     0.048 C 
BRANCH   7   9
ATOM      9  C   UNL     1      14.228 -26.596  22.878  1.00  0.00     0.013 C 
ATOM     10  C   UNL     1      14.240 -27.409  24.176  1.00  0.00     0.012 C 
ATOM     11  C   UNL     1      14.258 -27.516  21.657  1.00  0.00     0.012 C 
ENDBRANCH   7   9
ENDBRANCH   1   2
BRANCH   1  12
ATOM     12  C   UNL     1       8.953 -26.314  21.322  1.00  0.00     0.307 C 
BRANCH  12  13
ATOM     13  C   UNL     1       8.631 -27.710  21.689  1.00  0.00     0.174 A 
ATOM     14  C   UNL     1       7.474 -28.423  21.887  1.00  0.00     0.081 A 
ATOM     15  O   UNL     1       9.691 -28.531  21.898  1.00  0.00    -0.357 OA
ATOM     16  C   UNL     1       7.897 -29.731  22.243  1.00  0.00     0.114 A 
ATOM     17  N   UNL     1       9.241 -29.788  22.241  1.00  0.00    -0.079 NA
BRANCH  16  18
ATOM     18  C   UNL     1       7.075 -30.899  22.574  1.00  0.00     0.004 A 
ATOM     19  C   UNL     1       6.735 -31.179  23.909  1.00  0.00     0.010 A 
ATOM     20  C   UNL     1       6.605 -31.764  21.574  1.00  0.00     0.010 A 
ATOM     21  C   UNL     1       5.953 -32.291  24.233  1.00  0.00     0.001 A 
ATOM     22  C   UNL     1       5.822 -32.876  21.899  1.00  0.00     0.001 A 
ATOM     23  C   UNL     1       5.497 -33.140  23.228  1.00  0.00     0.000 A 
ENDBRANCH  16  18
ENDBRANCH  12  13
ENDBRANCH   1  12
TORSDOF 5
ENDMDL
MODEL 8
REMARK VINA RESULT:    -6.599      3.567      4.475
REMARK INTER + INTRA:          -9.155
REMARK INTER:                  -8.618
REMARK INTRA:                  -0.537
REMARK UNBOUND:                -0.627
REMARK SMILES Cc1ccc(C(C)C)cc1OCc1cc(-c2ccccc2)no1
REMARK SMILES IDX 11 1 10 2 2 3 3 4 4 5 9 6 5 7 1 8 6 9 7 10 8 11 12 12 13 13
REMARK SMILES IDX 14 14 23 15 15 16 22 17 16 18 17 19 21 20 18 21 20 22 19 23
REMARK H PARENT
ROOT
ATOM      1  O   UNL     1      11.030 -27.786  23.575  1.00  0.00    -0.485 OA
ENDROOT
BRANCH   1   2
ATOM      2  C   UNL     1      11.872 -26.726  23.354  1.00  0.00     0.123 A 
ATOM      3  C   UNL     1      13.208 -27.058  23.073  1.00  0.00    -0.009 A 
ATOM      4  C   UNL     1      14.130 -26.034  22.817  1.00  0.00     0.007 A 
ATOM      5  C   UNL     1      13.730 -24.697  22.830  1.00  0.00     0.004 A 
ATOM      6  C   UNL     1      11.478 -25.383  23.352  1.00  0.00     0.050 A 
ATOM      7  C   UNL     1      12.399 -24.354  23.093  1.00  0.00    -0.042 A 
ATOM      8  C   UNL     1      13.659 -28.491  23.047  1.00  0.00     0.048 C 
BRANCH   7   9
ATOM      9  C   UNL     1      11.980 -22.894  23.082  1.00  0.00     0.013 C 
ATOM     10  C   UNL     1      10.793 -22.644  24.018  1.00  0.00     0.012 C 
ATOM     11  C   UNL     1      13.150 -21.969  23.425  1.00  0.00     0.012 C 
ENDBRANCH   7   9
ENDBRANCH   1   2
BRANCH   1  12
ATOM     12  C   UNL     1       9.626 -27.530  23.666  1.00  0.00     0.307 C 
BRANCH  12  13
ATOM     13  C   UNL     1       8.893 -28.814  23.639  1.00  0.00     0.174 A 
ATOM     14  C   UNL     1       7.916 -29.394  24.411  1.00  0.00     0.081 A 
ATOM     15  O   UNL     1       9.225 -29.669  22.639  1.00  0.00    -0.357 OA
ATOM     16  C   UNL     1       7.680 -30.665  23.823  1.00  0.00     0.114 A 
ATOM     17  N   UNL     1       8.474 -30.820  22.747  1.00  0.00    -0.079 NA
BRANCH  16  18
ATOM     18  C   UNL     1       6.742 -31.709  24.247  1.00  0.00     0.004 A 
ATOM     19  C   UNL     1       6.616 -32.047  25.606  1.00  0.00     0.010 A 
ATOM     20  C   UNL     1       5.946 -32.393  23.316  1.00  0.00     0.010 A 
ATOM     21  C   UNL     1       5.724 -33.041  26.018  1.00  0.00     0.001 A 
ATOM     22  C   UNL     1       5.054 -33.388  23.729  1.00  0.00     0.001 A 
ATOM     23  C   UNL     1       4.945 -33.712  25.080  1.00  0.00     0.000 A 
ENDBRANCH  16  18
ENDBRANCH  12  13
ENDBRANCH   1  12
TORSDOF 5
ENDMDL
