MODEL 1
REMARK VINA RESULT:    -4.981      0.000      0.000
REMARK INTER + INTRA:          -5.543
REMARK INTER:                  -5.418
REMARK INTRA:                  -0.125
REMARK UNBOUND:                -0.125
REMARK SMILES Cc1ccc(C(C)C)cc1O
REMARK SMILES IDX 1 1 2 2 3 3 4 4 5 5 9 6 10 7 11 8 6 10 7 11 8 12
REMARK H PARENT 11 9
ROOT
ATOM      1  C   UNL     1     -20.138  15.230 -24.077  1.00  0.00     0.048 C 
ATOM      2  C   UNL     1     -20.851  14.880 -25.350  1.00  0.00    -0.009 A 
ATOM      3  C   UNL     1     -20.215  14.060 -26.293  1.00  0.00     0.007 A 
ATOM      4  C   UNL     1     -20.851  13.714 -27.489  1.00  0.00     0.004 A 
ATOM      5  C   UNL     1     -22.140  14.179 -27.777  1.00  0.00    -0.042 A 
ATOM      6  C   UNL     1     -22.775  14.999 -26.835  1.00  0.00     0.050 A 
ATOM      7  C   UNL     1     -22.138  15.342 -25.642  1.00  0.00     0.118 A 
ENDROOT
BRANCH   7   8
ATOM      8  O   UNL     1     -22.847  16.146 -24.795  1.00  0.00    -0.508 OA
ATOM      9  H   UNL     1     -23.740  16.278 -25.150  1.00  0.00     0.293 HD
ENDBRANCH   7   8
BRANCH   5  10
ATOM     10  C   UNL     1     -22.812  13.792 -29.082  1.00  0.00     0.013 C 
ATOM     11  C   UNL     1     -22.358  14.690 -30.235  1.00  0.00     0.012 C 
ATOM     12  C   UNL     1     -22.583  12.317 -29.417  1.00  0.00     0.012 C 
ENDBRANCH   5  10
TORSDOF 2
ENDMDL
MODEL 2
REMARK VINA RESULT:    -4.961      2.129      4.668
REMARK INTER + INTRA:          -5.521
REMARK INTER:                  -5.396
REMARK INTRA:                  -0.125
REMARK UNBOUND:                -0.125
REMARK SMILES Cc1ccc(C(C)C)cc1O
REMARK SMILES IDX 1 1 2 2 3 3 4 4 5 5 9 6 10 7 11 8 6 10 7 11 8 12
REMARK H PARENT 11 9
ROOT
ATOM      1  C   UNL     1     -22.828  13.081 -29.721  1.00  0.00     0.048 C 
ATOM      2  C   UNL     1     -22.084  13.577 -28.514  1.00  0.00    -0.009 A 
ATOM      3  C   UNL     1     -22.801  14.128 -27.443  1.00  0.00     0.007 A 
ATOM      4  C   UNL     1     -22.140  14.599 -26.303  1.00  0.00     0.004 A 
ATOM      5  C   UNL     1     -20.745  14.533 -26.204  1.00  0.00    -0.042 A 
ATOM      6  C   UNL     1     -20.029  13.983 -27.276  1.00  0.00     0.050 A 
ATOM      7  C   UNL     1     -20.691  13.513 -28.411  1.00  0.00     0.118 A 
ENDROOT
BRANCH   7   8
ATOM      8  O   UNL     1     -19.898  12.997 -29.397  1.00  0.00    -0.508 OA
ATOM      9  H   UNL     1     -20.400  12.959 -30.225  1.00  0.00     0.293 HD
ENDBRANCH   7   8
BRANCH   5  10
ATOM     10  C   UNL     1     -20.047  15.051 -24.960  1.00  0.00     0.013 C 
ATOM     11  C   UNL     1     -20.108  16.578 -24.876  1.00  0.00     0.012 C 
ATOM     12  C   UNL     1     -20.614  14.412 -23.690  1.00  0.00     0.012 C 
ENDBRANCH   5  10
TORSDOF 2
ENDMDL
MODEL 3
REMARK VINA RESULT:    -4.835      1.385      2.240
REMARK INTER + INTRA:          -5.384
REMARK INTER:                  -5.259
REMARK INTRA:                  -0.125
REMARK UNBOUND:                -0.125
REMARK SMILES Cc1ccc(C(C)C)cc1O
REMARK SMILES IDX 1 1 2 2 3 3 4 4 5 5 9 6 10 7 11 8 6 10 7 11 8 12
REMARK H PARENT 11 9
ROOT
ATOM      1  C   UNL     1     -21.811  15.765 -23.759  1.00  0.00     0.048 C 
ATOM      2  C   UNL     1     -21.792  15.226 -25.160  1.00  0.00    -0.009 A 
ATOM      3  C   UNL     1     -22.734  15.691 -26.090  1.00  0.00     0.007 A 
ATOM      4  C   UNL     1     -22.744  15.210 -27.403  1.00  0.00     0.004 A 
ATOM      5  C   UNL     1     -21.814  14.251 -27.824  1.00  0.00    -0.042 A 
ATOM      6  C   UNL     1     -20.873  13.787 -26.895  1.00  0.00     0.050 A 
ATOM      7  C   UNL     1     -20.865  14.269 -25.585  1.00  0.00     0.118 A 
ENDROOT
BRANCH   7   8
ATOM      8  O   UNL     1     -19.907  13.749 -24.762  1.00  0.00    -0.508 OA
ATOM      9  H   UNL     1     -20.315  13.104 -24.163  1.00  0.00     0.293 HD
ENDBRANCH   7   8
BRANCH   5  10
ATOM     10  C   UNL     1     -21.843  13.743 -29.253  1.00  0.00     0.013 C 
ATOM     11  C   UNL     1     -22.563  12.396 -29.356  1.00  0.00     0.012 C 
ATOM     12  C   UNL     1     -22.466  14.768 -30.203  1.00  0.00     0.012 C 
ENDBRANCH   5  10
TORSDOF 2
ENDMDL
MODEL 4
REMARK VINA RESULT:    -4.783      3.230      4.333
REMARK INTER + INTRA:          -5.328
REMARK INTER:                  -5.203
REMARK INTRA:                  -0.125
REMARK UNBOUND:                -0.125
REMARK SMILES Cc1ccc(C(C)C)cc1O
REMARK SMILES IDX 1 1 2 2 3 3 4 4 5 5 9 6 10 7 11 8 6 10 7 11 8 12
REMARK H PARENT 11 9
ROOT
ATOM      1  C   UNL     1     -19.534  13.753 -28.324  1.00  0.00     0.048 C 
ATOM      2  C   UNL     1     -20.581  14.490 -29.108  1.00  0.00    -0.009 A 
ATOM      3  C   UNL     1     -20.545  15.890 -29.156  1.00  0.00     0.007 A 
ATOM      4  C   UNL     1     -21.505  16.609 -29.877  1.00  0.00     0.004 A 
ATOM      5  C   UNL     1     -22.527  15.947 -30.568  1.00  0.00    -0.042 A 
ATOM      6  C   UNL     1     -22.563  14.547 -30.519  1.00  0.00     0.050 A 
ATOM      7  C   UNL     1     -21.603  13.833 -29.799  1.00  0.00     0.118 A 
ENDROOT
BRANCH   7   8
ATOM      8  O   UNL     1     -21.731  12.473 -29.817  1.00  0.00    -0.508 OA
ATOM      9  H   UNL     1     -21.225  12.094 -29.082  1.00  0.00     0.293 HD
ENDBRANCH   7   8
BRANCH   5  10
ATOM     10  C   UNL     1     -23.559  16.745 -31.344  1.00  0.00     0.013 C 
ATOM     11  C   UNL     1     -23.718  18.158 -30.777  1.00  0.00     0.012 C 
ATOM     12  C   UNL     1     -23.229  16.790 -32.838  1.00  0.00     0.012 C 
ENDBRANCH   5  10
TORSDOF 2
ENDMDL
MODEL 5
REMARK VINA RESULT:    -4.773      6.717      7.687
REMARK INTER + INTRA:          -5.317
REMARK INTER:                  -5.192
REMARK INTRA:                  -0.125
REMARK UNBOUND:                -0.125
REMARK SMILES Cc1ccc(C(C)C)cc1O
REMARK SMILES IDX 1 1 2 2 3 3 4 4 5 5 9 6 10 7 11 8 6 10 7 11 8 12
REMARK H PARENT 11 9
ROOT
ATOM      1  C   UNL     1     -17.674  23.834 -24.851  1.00  0.00     0.048 C 
ATOM      2  C   UNL     1     -18.024  22.508 -25.461  1.00  0.00    -0.009 A 
ATOM      3  C   UNL     1     -19.152  21.814 -25.000  1.00  0.00     0.007 A 
ATOM      4  C   UNL     1     -19.507  20.576 -25.546  1.00  0.00     0.004 A 
ATOM      5  C   UNL     1     -18.743  19.997 -26.567  1.00  0.00    -0.042 A 
ATOM      6  C   UNL     1     -17.615  20.690 -27.027  1.00  0.00     0.050 A 
ATOM      7  C   UNL     1     -17.264  21.925 -26.481  1.00  0.00     0.118 A 
ENDROOT
BRANCH   7   8
ATOM      8  O   UNL     1     -16.147  22.515 -27.002  1.00  0.00    -0.508 OA
ATOM      9  H   UNL     1     -15.622  21.847 -27.470  1.00  0.00     0.293 HD
ENDBRANCH   7   8
BRANCH   5  10
ATOM     10  C   UNL     1     -19.144  18.652 -27.145  1.00  0.00     0.013 C 
ATOM     11  C   UNL     1     -19.901  17.804 -26.120  1.00  0.00     0.012 C 
ATOM     12  C   UNL     1     -19.961  18.813 -28.429  1.00  0.00     0.012 C 
ENDBRANCH   5  10
TORSDOF 2
ENDMDL
MODEL 6
REMARK VINA RESULT:    -4.740      2.826      4.352
REMARK INTER + INTRA:          -5.281
REMARK INTER:                  -5.157
REMARK INTRA:                  -0.124
REMARK UNBOUND:                -0.125
REMARK SMILES Cc1ccc(C(C)C)cc1O
REMARK SMILES IDX 1 1 2 2 3 3 4 4 5 5 9 6 10 7 11 8 6 10 7 11 8 12
REMARK H PARENT 11 9
ROOT
ATOM      1  C   UNL     1     -22.087  14.208 -20.544  1.00  0.00     0.048 C 
ATOM      2  C   UNL     1     -21.607  14.584 -21.916  1.00  0.00    -0.009 A 
ATOM      3  C   UNL     1     -22.014  15.803 -22.478  1.00  0.00     0.007 A 
ATOM      4  C   UNL     1     -21.586  16.185 -23.753  1.00  0.00     0.004 A 
ATOM      5  C   UNL     1     -20.740  15.358 -24.504  1.00  0.00    -0.042 A 
ATOM      6  C   UNL     1     -20.335  14.140 -23.942  1.00  0.00     0.050 A 
ATOM      7  C   UNL     1     -20.763  13.762 -22.669  1.00  0.00     0.118 A 
ENDROOT
BRANCH   7   8
ATOM      8  O   UNL     1     -20.309  12.555 -22.218  1.00  0.00    -0.508 OA
ATOM      9  H   UNL     1     -21.065  12.003 -21.966  1.00  0.00     0.293 HD
ENDBRANCH   7   8
BRANCH   5  10
ATOM     10  C   UNL     1     -20.288  15.790 -25.886  1.00  0.00     0.013 C 
ATOM     11  C   UNL     1     -20.305  14.621 -26.874  1.00  0.00     0.012 C 
ATOM     12  C   UNL     1     -21.124  16.960 -26.412  1.00  0.00     0.012 C 
ENDBRANCH   5  10
TORSDOF 2
ENDMDL
MODEL 7
REMARK VINA RESULT:    -4.707      2.936      4.653
REMARK INTER + INTRA:          -5.246
REMARK INTER:                  -5.123
REMARK INTRA:                  -0.122
REMARK UNBOUND:                -0.125
REMARK SMILES Cc1ccc(C(C)C)cc1O
REMARK SMILES IDX 1 1 2 2 3 3 4 4 5 5 9 6 10 7 11 8 6 10 7 11 8 12
REMARK H PARENT 11 9
ROOT
ATOM      1  C   UNL     1     -22.525  12.460 -29.373  1.00  0.00     0.048 C 
ATOM      2  C   UNL     1     -21.905  13.826 -29.362  1.00  0.00    -0.009 A 
ATOM      3  C   UNL     1     -22.457  14.840 -30.158  1.00  0.00     0.007 A 
ATOM      4  C   UNL     1     -21.905  16.125 -30.172  1.00  0.00     0.004 A 
ATOM      5  C   UNL     1     -20.784  16.432 -29.390  1.00  0.00    -0.042 A 
ATOM      6  C   UNL     1     -20.232  15.418 -28.595  1.00  0.00     0.050 A 
ATOM      7  C   UNL     1     -20.786  14.138 -28.583  1.00  0.00     0.118 A 
ENDROOT
BRANCH   7   8
ATOM      8  O   UNL     1     -20.169  13.226 -27.773  1.00  0.00    -0.508 OA
ATOM      9  H   UNL     1     -19.845  12.488 -28.311  1.00  0.00     0.293 HD
ENDBRANCH   7   8
BRANCH   5  10
ATOM     10  C   UNL     1     -20.199  17.832 -29.420  1.00  0.00     0.013 C 
ATOM     11  C   UNL     1     -21.285  18.889 -29.631  1.00  0.00     0.012 C 
ATOM     12  C   UNL     1     -19.386  18.129 -28.158  1.00  0.00     0.012 C 
ENDBRANCH   5  10
TORSDOF 2
ENDMDL
MODEL 8
REMARK VINA RESULT:    -4.679      3.136      5.009
REMARK INTER + INTRA:          -5.215
REMARK INTER:                  -5.092
REMARK INTRA:                  -0.123
REMARK UNBOUND:                -0.125
REMARK SMILES Cc1ccc(C(C)C)cc1O
REMARK SMILES IDX 1 1 2 2 3 3 4 4 5 5 9 6 10 7 11 8 6 10 7 11 8 12
REMARK H PARENT 11 9
ROOT
ATOM      1  C   UNL     1     -22.344  18.788 -31.598  1.00  0.00     0.048 C 
ATOM      2  C   UNL     1     -22.115  17.440 -30.980  1.00  0.00    -0.009 A 
ATOM      3  C   UNL     1     -21.269  17.326 -29.868  1.00  0.00     0.007 A 
ATOM      4  C   UNL     1     -21.034  16.084 -29.268  1.00  0.00     0.004 A 
ATOM      5  C   UNL     1     -21.637  14.922 -29.764  1.00  0.00    -0.042 A 
ATOM      6  C   UNL     1     -22.483  15.036 -30.876  1.00  0.00     0.050 A 
ATOM      7  C   UNL     1     -22.715  16.276 -31.472  1.00  0.00     0.118 A 
ENDROOT
BRANCH   7   8
ATOM      8  O   UNL     1     -23.555  16.274 -32.550  1.00  0.00    -0.508 OA
ATOM      9  H   UNL     1     -23.031  16.339 -33.363  1.00  0.00     0.293 HD
ENDBRANCH   7   8
BRANCH   5  10
ATOM     10  C   UNL     1     -21.368  13.585 -29.099  1.00  0.00     0.013 C 
ATOM     11  C   UNL     1     -21.075  13.749 -27.606  1.00  0.00     0.012 C 
ATOM     12  C   UNL     1     -22.520  12.602 -29.324  1.00  0.00     0.012 C 
ENDBRANCH   5  10
TORSDOF 2
ENDMDL
