MODEL 1
REMARK VINA RESULT:    -6.996      0.000      0.000
REMARK INTER + INTRA:          -9.652
REMARK INTER:                  -9.041
REMARK INTRA:                  -0.611
REMARK UNBOUND:                -0.611
REMARK SMILES Cc1ccc(-c2cc(COc3cc(C(C)C)ccc3C)on2)cc1
REMARK SMILES IDX 9 1 8 2 6 3 7 4 22 5 21 6 5 7 2 8 3 9 24 10 4 11 23 12 1 13
REMARK SMILES IDX 10 14 11 15 12 16 19 17 13 18 18 19 17 20 20 21 14 22 15 23
REMARK SMILES IDX 16 24
REMARK H PARENT
ROOT
ATOM      1  C   UNL     1       7.554 -29.204  22.079  1.00  0.00     0.307 C 
ENDROOT
BRANCH   1   2
ATOM      2  C   UNL     1       8.779 -28.375  22.159  1.00  0.00     0.174 A 
ATOM      3  C   UNL     1      10.463 -26.937  22.331  1.00  0.00     0.114 A 
ATOM      4  C   UNL     1       9.048 -27.053  22.419  1.00  0.00     0.081 A 
ATOM      5  N   UNL     1      10.997 -28.136  22.035  1.00  0.00    -0.079 NA
ATOM      6  O   UNL     1       9.948 -29.023  21.929  1.00  0.00    -0.357 OA
BRANCH   3   7
ATOM      7  C   UNL     1      11.297 -25.744  22.520  1.00  0.00     0.004 A 
ATOM      8  C   UNL     1      12.897 -23.435  22.867  1.00  0.00    -0.051 A 
ATOM      9  C   UNL     1      11.560 -23.320  22.476  1.00  0.00     0.004 A 
ATOM     10  C   UNL     1      13.424 -24.707  23.103  1.00  0.00     0.004 A 
ATOM     11  C   UNL     1      10.772 -24.462  22.300  1.00  0.00     0.011 A 
ATOM     12  C   UNL     1      12.635 -25.850  22.926  1.00  0.00     0.011 A 
ATOM     13  C   UNL     1      13.733 -22.210  23.088  1.00  0.00     0.044 C 
ENDBRANCH   3   7
ENDBRANCH   1   2
BRANCH   1  14
ATOM     14  O   UNL     1       7.949 -30.564  22.251  1.00  0.00    -0.485 OA
BRANCH  14  15
ATOM     15  C   UNL     1       7.180 -31.350  23.069  1.00  0.00     0.123 A 
ATOM     16  C   UNL     1       7.156 -31.272  24.467  1.00  0.00     0.050 A 
ATOM     17  C   UNL     1       6.369 -32.291  22.412  1.00  0.00    -0.009 A 
ATOM     18  C   UNL     1       6.334 -32.120  25.229  1.00  0.00    -0.042 A 
ATOM     19  C   UNL     1       5.548 -33.138  23.169  1.00  0.00     0.007 A 
ATOM     20  C   UNL     1       5.531 -33.053  24.562  1.00  0.00     0.004 A 
ATOM     21  C   UNL     1       6.371 -32.399  20.913  1.00  0.00     0.048 C 
BRANCH  18  22
ATOM     22  C   UNL     1       6.332 -32.010  26.745  1.00  0.00     0.013 C 
ATOM     23  C   UNL     1       5.579 -33.176  27.392  1.00  0.00     0.012 C 
ATOM     24  C   UNL     1       7.753 -31.900  27.303  1.00  0.00     0.012 C 
ENDBRANCH  18  22
ENDBRANCH  14  15
ENDBRANCH   1  14
TORSDOF 5
ENDMDL
MODEL 2
REMARK VINA RESULT:    -6.934      1.726      8.656
REMARK INTER + INTRA:          -9.571
REMARK INTER:                  -8.893
REMARK INTRA:                  -0.678
REMARK UNBOUND:                -0.611
REMARK SMILES Cc1ccc(-c2cc(COc3cc(C(C)C)ccc3C)on2)cc1
REMARK SMILES IDX 9 1 8 2 6 3 7 4 22 5 21 6 5 7 2 8 3 9 24 10 4 11 23 12 1 13
REMARK SMILES IDX 10 14 11 15 12 16 19 17 13 18 18 19 17 20 20 21 14 22 15 23
REMARK SMILES IDX 16 24
REMARK H PARENT
ROOT
ATOM      1  C   UNL     1       9.010 -27.602  21.895  1.00  0.00     0.307 C 
ENDROOT
BRANCH   1   2
ATOM      2  C   UNL     1       8.577 -28.821  22.616  1.00  0.00     0.174 A 
ATOM      3  C   UNL     1       7.820 -30.495  23.865  1.00  0.00     0.114 A 
ATOM      4  C   UNL     1       7.860 -29.077  23.759  1.00  0.00     0.081 A 
ATOM      5  N   UNL     1       8.482 -31.044  22.830  1.00  0.00    -0.079 NA
ATOM      6  O   UNL     1       8.950 -30.002  22.060  1.00  0.00    -0.357 OA
BRANCH   3   7
ATOM      7  C   UNL     1       7.183 -31.319  24.899  1.00  0.00     0.004 A 
ATOM      8  C   UNL     1       5.972 -32.910  26.903  1.00  0.00    -0.051 A 
ATOM      9  C   UNL     1       6.993 -32.014  27.229  1.00  0.00     0.004 A 
ATOM     10  C   UNL     1       5.544 -32.991  25.575  1.00  0.00     0.004 A 
ATOM     11  C   UNL     1       7.595 -31.232  26.237  1.00  0.00     0.011 A 
ATOM     12  C   UNL     1       6.146 -32.209  24.583  1.00  0.00     0.011 A 
ATOM     13  C   UNL     1       5.304 -33.723  27.971  1.00  0.00     0.044 C 
ENDBRANCH   3   7
ENDBRANCH   1   2
BRANCH   1  14
ATOM     14  O   UNL     1       9.345 -26.624  22.877  1.00  0.00    -0.485 OA
BRANCH  14  15
ATOM     15  C   UNL     1      10.657 -26.236  22.965  1.00  0.00     0.123 A 
ATOM     16  C   UNL     1      11.757 -27.052  22.670  1.00  0.00     0.050 A 
ATOM     17  C   UNL     1      10.867 -24.912  23.385  1.00  0.00    -0.009 A 
ATOM     18  C   UNL     1      13.071 -26.569  22.788  1.00  0.00    -0.042 A 
ATOM     19  C   UNL     1      12.177 -24.428  23.503  1.00  0.00     0.007 A 
ATOM     20  C   UNL     1      13.267 -25.248  23.207  1.00  0.00     0.004 A 
ATOM     21  C   UNL     1       9.708 -24.010  23.708  1.00  0.00     0.048 C 
BRANCH  18  22
ATOM     22  C   UNL     1      14.243 -27.480  22.461  1.00  0.00     0.013 C 
ATOM     23  C   UNL     1      14.302 -28.683  23.406  1.00  0.00     0.012 C 
ATOM     24  C   UNL     1      14.213 -27.935  21.000  1.00  0.00     0.012 C 
ENDBRANCH  18  22
ENDBRANCH  14  15
ENDBRANCH   1  14
TORSDOF 5
ENDMDL
MODEL 3
REMARK VINA RESULT:    -6.926      3.269      8.510
REMARK INTER + INTRA:          -9.562
REMARK INTER:                  -8.743
REMARK INTRA:                  -0.819
REMARK UNBOUND:                -0.611
REMARK SMILES Cc1ccc(-c2cc(COc3cc(C(C)C)ccc3C)on2)cc1
REMARK SMILES IDX 9 1 8 2 6 3 7 4 22 5 21 6 5 7 2 8 3 9 24 10 4 11 23 12 1 13
REMARK SMILES IDX 10 14 11 15 12 16 19 17 13 18 18 19 17 20 20 21 14 22 15 23
REMARK SMILES IDX 16 24
REMARK H PARENT
ROOT
ATOM      1  C   UNL     1       9.446 -26.524  20.860  1.00  0.00     0.307 C 
ENDROOT
BRANCH   1   2
ATOM      2  C   UNL     1       9.046 -27.773  21.549  1.00  0.00     0.174 A 
ATOM      3  C   UNL     1       8.211 -29.598  22.502  1.00  0.00     0.114 A 
ATOM      4  C   UNL     1       7.869 -28.460  21.722  1.00  0.00     0.081 A 
ATOM      5  N   UNL     1       9.529 -29.580  22.773  1.00  0.00    -0.079 NA
ATOM      6  O   UNL     1      10.041 -28.446  22.180  1.00  0.00    -0.357 OA
BRANCH   3   7
ATOM      7  C   UNL     1       7.339 -30.676  22.983  1.00  0.00     0.004 A 
ATOM      8  C   UNL     1       5.646 -32.754  23.893  1.00  0.00    -0.051 A 
ATOM      9  C   UNL     1       6.102 -32.737  22.572  1.00  0.00     0.004 A 
ATOM     10  C   UNL     1       6.057 -31.740  24.762  1.00  0.00     0.004 A 
ATOM     11  C   UNL     1       6.934 -31.706  22.122  1.00  0.00     0.011 A 
ATOM     12  C   UNL     1       6.889 -30.709  24.311  1.00  0.00     0.011 A 
ATOM     13  C   UNL     1       4.782 -33.876  24.385  1.00  0.00     0.044 C 
ENDBRANCH   3   7
ENDBRANCH   1   2
BRANCH   1  14
ATOM     14  O   UNL     1       8.563 -26.348  19.754  1.00  0.00    -0.485 OA
BRANCH  14  15
ATOM     15  C   UNL     1       7.531 -25.457  19.900  1.00  0.00     0.123 A 
ATOM     16  C   UNL     1       7.555 -24.331  20.733  1.00  0.00     0.050 A 
ATOM     17  C   UNL     1       6.383 -25.733  19.139  1.00  0.00    -0.009 A 
ATOM     18  C   UNL     1       6.449 -23.469  20.821  1.00  0.00    -0.042 A 
ATOM     19  C   UNL     1       5.279 -24.875  19.225  1.00  0.00     0.007 A 
ATOM     20  C   UNL     1       5.312 -23.755  20.057  1.00  0.00     0.004 A 
ATOM     21  C   UNL     1       6.326 -26.934  18.235  1.00  0.00     0.048 C 
BRANCH  18  22
ATOM     22  C   UNL     1       6.507 -22.255  21.734  1.00  0.00     0.013 C 
ATOM     23  C   UNL     1       7.813 -21.476  21.553  1.00  0.00     0.012 C 
ATOM     24  C   UNL     1       5.295 -21.342  21.536  1.00  0.00     0.012 C 
ENDBRANCH  18  22
ENDBRANCH  14  15
ENDBRANCH   1  14
TORSDOF 5
ENDMDL
MODEL 4
REMARK VINA RESULT:    -6.913      5.164      7.891
REMARK INTER + INTRA:          -9.544
REMARK INTER:                  -8.779
REMARK INTRA:                  -0.765
REMARK UNBOUND:                -0.611
REMARK SMILES Cc1ccc(-c2cc(COc3cc(C(C)C)ccc3C)on2)cc1
REMARK SMILES IDX 9 1 8 2 6 3 7 4 22 5 21 6 5 7 2 8 3 9 24 10 4 11 23 12 1 13
REMARK SMILES IDX 10 14 11 15 12 16 19 17 13 18 18 19 17 20 20 21 14 22 15 23
REMARK SMILES IDX 16 24
REMARK H PARENT
ROOT
ATOM      1  C   UNL     1      11.156 -23.004  22.474  1.00  0.00     0.307 C 
ENDROOT
BRANCH   1   2
ATOM      2  C   UNL     1       9.879 -23.452  21.873  1.00  0.00     0.174 A 
ATOM      3  C   UNL     1       7.851 -23.944  21.111  1.00  0.00     0.114 A 
ATOM      4  C   UNL     1       8.562 -23.077  21.986  1.00  0.00     0.081 A 
ATOM      5  N   UNL     1       8.713 -24.786  20.511  1.00  0.00    -0.079 NA
ATOM      6  O   UNL     1       9.968 -24.476  20.988  1.00  0.00    -0.357 OA
BRANCH   3   7
ATOM      7  C   UNL     1       6.410 -23.988  20.837  1.00  0.00     0.004 A 
ATOM      8  C   UNL     1       3.627 -24.059  20.322  1.00  0.00    -0.051 A 
ATOM      9  C   UNL     1       4.280 -22.841  20.528  1.00  0.00     0.004 A 
ATOM     10  C   UNL     1       4.375 -25.239  20.352  1.00  0.00     0.004 A 
ATOM     11  C   UNL     1       5.654 -22.808  20.788  1.00  0.00     0.011 A 
ATOM     12  C   UNL     1       5.750 -25.206  20.613  1.00  0.00     0.011 A 
ATOM     13  C   UNL     1       2.161 -24.093  20.010  1.00  0.00     0.044 C 
ENDBRANCH   3   7
ENDBRANCH   1   2
BRANCH   1  14
ATOM     14  O   UNL     1      11.259 -23.614  23.759  1.00  0.00    -0.485 OA
BRANCH  14  15
ATOM     15  C   UNL     1      11.550 -24.953  23.804  1.00  0.00     0.123 A 
ATOM     16  C   UNL     1      12.732 -25.534  23.330  1.00  0.00     0.050 A 
ATOM     17  C   UNL     1      10.558 -25.766  24.378  1.00  0.00    -0.009 A 
ATOM     18  C   UNL     1      12.947 -26.920  23.417  1.00  0.00    -0.042 A 
ATOM     19  C   UNL     1      10.770 -27.148  24.467  1.00  0.00     0.007 A 
ATOM     20  C   UNL     1      11.951 -27.719  23.992  1.00  0.00     0.004 A 
ATOM     21  C   UNL     1       9.278 -25.173  24.898  1.00  0.00     0.048 C 
BRANCH  18  22
ATOM     22  C   UNL     1      14.242 -27.520  22.893  1.00  0.00     0.013 C 
ATOM     23  C   UNL     1      14.575 -28.840  23.593  1.00  0.00     0.012 C 
ATOM     24  C   UNL     1      14.203 -27.702  21.374  1.00  0.00     0.012 C 
ENDBRANCH  18  22
ENDBRANCH  14  15
ENDBRANCH   1  14
TORSDOF 5
ENDMDL
MODEL 5
REMARK VINA RESULT:    -6.897      1.606      8.888
REMARK INTER + INTRA:          -9.524
REMARK INTER:                  -8.910
REMARK INTRA:                  -0.615
REMARK UNBOUND:                -0.611
REMARK SMILES Cc1ccc(-c2cc(COc3cc(C(C)C)ccc3C)on2)cc1
REMARK SMILES IDX 9 1 8 2 6 3 7 4 22 5 21 6 5 7 2 8 3 9 24 10 4 11 23 12 1 13
REMARK SMILES IDX 10 14 11 15 12 16 19 17 13 18 18 19 17 20 20 21 14 22 15 23
REMARK SMILES IDX 16 24
REMARK H PARENT
ROOT
ATOM      1  C   UNL     1       9.787 -28.045  22.011  1.00  0.00     0.307 C 
ENDROOT
BRANCH   1   2
ATOM      2  C   UNL     1       9.052 -29.163  22.648  1.00  0.00     0.174 A 
ATOM      3  C   UNL     1       7.932 -30.690  23.808  1.00  0.00     0.114 A 
ATOM      4  C   UNL     1       8.467 -29.374  23.872  1.00  0.00     0.081 A 
ATOM      5  N   UNL     1       8.191 -31.224  22.600  1.00  0.00    -0.079 NA
ATOM      6  O   UNL     1       8.887 -30.273  21.886  1.00  0.00    -0.357 OA
BRANCH   3   7
ATOM      7  C   UNL     1       7.198 -31.433  24.839  1.00  0.00     0.004 A 
ATOM      8  C   UNL     1       5.799 -32.866  26.840  1.00  0.00    -0.051 A 
ATOM      9  C   UNL     1       6.800 -31.954  27.188  1.00  0.00     0.004 A 
ATOM     10  C   UNL     1       5.487 -33.043  25.489  1.00  0.00     0.004 A 
ATOM     11  C   UNL     1       7.493 -31.250  26.198  1.00  0.00     0.011 A 
ATOM     12  C   UNL     1       6.182 -32.338  24.499  1.00  0.00     0.011 A 
ATOM     13  C   UNL     1       5.032 -33.596  27.901  1.00  0.00     0.044 C 
ENDBRANCH   3   7
ENDBRANCH   1   2
BRANCH   1  14
ATOM     14  O   UNL     1      11.154 -28.158  22.401  1.00  0.00    -0.485 OA
BRANCH  14  15
ATOM     15  C   UNL     1      11.846 -26.997  22.631  1.00  0.00     0.123 A 
ATOM     16  C   UNL     1      11.267 -25.728  22.759  1.00  0.00     0.050 A 
ATOM     17  C   UNL     1      13.239 -27.138  22.741  1.00  0.00    -0.009 A 
ATOM     18  C   UNL     1      12.055 -24.589  22.996  1.00  0.00    -0.042 A 
ATOM     19  C   UNL     1      14.028 -26.004  22.977  1.00  0.00     0.007 A 
ATOM     20  C   UNL     1      13.442 -24.744  23.104  1.00  0.00     0.004 A 
ATOM     21  C   UNL     1      13.893 -28.486  22.609  1.00  0.00     0.048 C 
BRANCH  18  22
ATOM     22  C   UNL     1      11.395 -23.227  23.130  1.00  0.00     0.013 C 
ATOM     23  C   UNL     1      10.197 -23.273  24.083  1.00  0.00     0.012 C 
ATOM     24  C   UNL     1      12.398 -22.155  23.564  1.00  0.00     0.012 C 
ENDBRANCH  18  22
ENDBRANCH  14  15
ENDBRANCH   1  14
TORSDOF 5
ENDMDL
MODEL 6
REMARK VINA RESULT:    -6.861      1.415      8.688
REMARK INTER + INTRA:          -9.477
REMARK INTER:                  -8.937
REMARK INTRA:                  -0.540
REMARK UNBOUND:                -0.611
REMARK SMILES Cc1ccc(-c2cc(COc3cc(C(C)C)ccc3C)on2)cc1
REMARK SMILES IDX 9 1 8 2 6 3 7 4 22 5 21 6 5 7 2 8 3 9 24 10 4 11 23 12 1 13
REMARK SMILES IDX 10 14 11 15 12 16 19 17 13 18 18 19 17 20 20 21 14 22 15 23
REMARK SMILES IDX 16 24
REMARK H PARENT
ROOT
ATOM      1  C   UNL     1       9.132 -26.691  20.963  1.00  0.00     0.307 C 
ENDROOT
BRANCH   1   2
ATOM      2  C   UNL     1       8.746 -27.966  21.610  1.00  0.00     0.174 A 
ATOM      3  C   UNL     1       7.928 -29.793  22.573  1.00  0.00     0.114 A 
ATOM      4  C   UNL     1       7.566 -28.531  22.028  1.00  0.00     0.081 A 
ATOM      5  N   UNL     1       9.260 -29.961  22.477  1.00  0.00    -0.079 NA
ATOM      6  O   UNL     1       9.761 -28.825  21.880  1.00  0.00    -0.357 OA
BRANCH   3   7
ATOM      7  C   UNL     1       7.061 -30.818  23.166  1.00  0.00     0.004 A 
ATOM      8  C   UNL     1       5.399 -32.794  24.327  1.00  0.00    -0.051 A 
ATOM      9  C   UNL     1       5.829 -31.697  25.078  1.00  0.00     0.004 A 
ATOM     10  C   UNL     1       5.786 -32.888  22.988  1.00  0.00     0.004 A 
ATOM     11  C   UNL     1       6.654 -30.724  24.505  1.00  0.00     0.011 A 
ATOM     12  C   UNL     1       6.613 -31.914  22.414  1.00  0.00     0.011 A 
ATOM     13  C   UNL     1       4.487 -33.819  24.931  1.00  0.00     0.044 C 
ENDBRANCH   3   7
ENDBRANCH   1   2
BRANCH   1  14
ATOM     14  O   UNL     1       9.330 -25.731  21.999  1.00  0.00    -0.485 OA
BRANCH  14  15
ATOM     15  C   UNL     1      10.617 -25.342  22.267  1.00  0.00     0.123 A 
ATOM     16  C   UNL     1      11.705 -26.212  22.408  1.00  0.00     0.050 A 
ATOM     17  C   UNL     1      10.812 -23.958  22.403  1.00  0.00    -0.009 A 
ATOM     18  C   UNL     1      12.994 -25.725  22.683  1.00  0.00    -0.042 A 
ATOM     19  C   UNL     1      12.096 -23.469  22.678  1.00  0.00     0.007 A 
ATOM     20  C   UNL     1      13.175 -24.343  22.816  1.00  0.00     0.004 A 
ATOM     21  C   UNL     1       9.665 -22.997  22.257  1.00  0.00     0.048 C 
BRANCH  18  22
ATOM     22  C   UNL     1      14.155 -26.695  22.830  1.00  0.00     0.013 C 
ATOM     23  C   UNL     1      14.158 -27.365  24.207  1.00  0.00     0.012 C 
ATOM     24  C   UNL     1      14.158 -27.742  21.713  1.00  0.00     0.012 C 
ENDBRANCH  18  22
ENDBRANCH  14  15
ENDBRANCH   1  14
TORSDOF 5
ENDMDL
MODEL 7
REMARK VINA RESULT:    -6.817      1.744      3.321
REMARK INTER + INTRA:          -9.421
REMARK INTER:                  -8.702
REMARK INTRA:                  -0.718
REMARK UNBOUND:                -0.611
REMARK SMILES Cc1ccc(-c2cc(COc3cc(C(C)C)ccc3C)on2)cc1
REMARK SMILES IDX 9 1 8 2 6 3 7 4 22 5 21 6 5 7 2 8 3 9 24 10 4 11 23 12 1 13
REMARK SMILES IDX 10 14 11 15 12 16 19 17 13 18 18 19 17 20 20 21 14 22 15 23
REMARK SMILES IDX 16 24
REMARK H PARENT
ROOT
ATOM      1  C   UNL     1       9.125 -27.985  21.177  1.00  0.00     0.307 C 
ENDROOT
BRANCH   1   2
ATOM      2  C   UNL     1       9.658 -26.623  21.414  1.00  0.00     0.174 A 
ATOM      3  C   UNL     1      10.600 -24.685  21.952  1.00  0.00     0.114 A 
ATOM      4  C   UNL     1      10.575 -26.069  22.274  1.00  0.00     0.081 A 
ATOM      5  N   UNL     1       9.739 -24.439  20.947  1.00  0.00    -0.079 NA
ATOM      6  O   UNL     1       9.158 -25.645  20.619  1.00  0.00    -0.357 OA
BRANCH   3   7
ATOM      7  C   UNL     1      11.404 -23.617  22.559  1.00  0.00     0.004 A 
ATOM      8  C   UNL     1      12.941 -21.544  23.722  1.00  0.00    -0.051 A 
ATOM      9  C   UNL     1      11.548 -21.447  23.663  1.00  0.00     0.004 A 
ATOM     10  C   UNL     1      13.560 -22.690  23.217  1.00  0.00     0.004 A 
ATOM     11  C   UNL     1      10.790 -22.470  23.083  1.00  0.00     0.011 A 
ATOM     12  C   UNL     1      12.801 -23.714  22.636  1.00  0.00     0.011 A 
ATOM     13  C   UNL     1      13.752 -20.464  24.373  1.00  0.00     0.044 C 
ENDBRANCH   3   7
ENDBRANCH   1   2
BRANCH   1  14
ATOM     14  O   UNL     1       9.563 -28.807  22.257  1.00  0.00    -0.485 OA
BRANCH  14  15
ATOM     15  C   UNL     1       8.626 -29.591  22.879  1.00  0.00     0.123 A 
ATOM     16  C   UNL     1       8.014 -30.715  22.310  1.00  0.00     0.050 A 
ATOM     17  C   UNL     1       8.285 -29.201  24.184  1.00  0.00    -0.009 A 
ATOM     18  C   UNL     1       7.062 -31.463  23.023  1.00  0.00    -0.042 A 
ATOM     19  C   UNL     1       7.335 -29.944  24.898  1.00  0.00     0.007 A 
ATOM     20  C   UNL     1       6.731 -31.063  24.323  1.00  0.00     0.004 A 
ATOM     21  C   UNL     1       8.924 -28.000  24.824  1.00  0.00     0.048 C 
BRANCH  18  22
ATOM     22  C   UNL     1       6.416 -32.677  22.376  1.00  0.00     0.013 C 
ATOM     23  C   UNL     1       5.057 -32.994  23.007  1.00  0.00     0.012 C 
ATOM     24  C   UNL     1       6.288 -32.508  20.861  1.00  0.00     0.012 C 
ENDBRANCH  18  22
ENDBRANCH  14  15
ENDBRANCH   1  14
TORSDOF 5
ENDMDL
MODEL 8
REMARK VINA RESULT:    -6.783      4.415      6.509
REMARK INTER + INTRA:          -9.377
REMARK INTER:                  -8.683
REMARK INTRA:                  -0.694
REMARK UNBOUND:                -0.611
REMARK SMILES Cc1ccc(-c2cc(COc3cc(C(C)C)ccc3C)on2)cc1
REMARK SMILES IDX 9 1 8 2 6 3 7 4 22 5 21 6 5 7 2 8 3 9 24 10 4 11 23 12 1 13
REMARK SMILES IDX 10 14 11 15 12 16 19 17 13 18 18 19 17 20 20 21 14 22 15 23
REMARK SMILES IDX 16 24
REMARK H PARENT
ROOT
ATOM      1  C   UNL     1       7.050 -25.761  19.264  1.00  0.00     0.307 C 
ENDROOT
BRANCH   1   2
ATOM      2  C   UNL     1       8.268 -25.702  20.107  1.00  0.00     0.174 A 
ATOM      3  C   UNL     1      10.088 -25.867  21.369  1.00  0.00     0.114 A 
ATOM      4  C   UNL     1       9.096 -26.628  20.691  1.00  0.00     0.081 A 
ATOM      5  N   UNL     1       9.851 -24.555  21.189  1.00  0.00    -0.079 NA
ATOM      6  O   UNL     1       8.721 -24.459  20.406  1.00  0.00    -0.357 OA
BRANCH   3   7
ATOM      7  C   UNL     1      11.226 -26.345  22.163  1.00  0.00     0.004 A 
ATOM      8  C   UNL     1      13.410 -27.281  23.701  1.00  0.00    -0.051 A 
ATOM      9  C   UNL     1      12.510 -28.182  23.125  1.00  0.00     0.004 A 
ATOM     10  C   UNL     1      13.226 -25.913  23.488  1.00  0.00     0.004 A 
ATOM     11  C   UNL     1      11.428 -27.717  22.369  1.00  0.00     0.011 A 
ATOM     12  C   UNL     1      12.143 -25.449  22.732  1.00  0.00     0.011 A 
ATOM     13  C   UNL     1      14.589 -27.779  24.483  1.00  0.00     0.044 C 
ENDBRANCH   3   7
ENDBRANCH   1   2
BRANCH   1  14
ATOM     14  O   UNL     1       6.109 -26.595  19.935  1.00  0.00    -0.485 OA
BRANCH  14  15
ATOM     15  C   UNL     1       5.238 -25.996  20.809  1.00  0.00     0.123 A 
ATOM     16  C   UNL     1       4.281 -25.036  20.456  1.00  0.00     0.050 A 
ATOM     17  C   UNL     1       5.350 -26.405  22.148  1.00  0.00    -0.009 A 
ATOM     18  C   UNL     1       3.427 -24.473  21.419  1.00  0.00    -0.042 A 
ATOM     19  C   UNL     1       4.500 -25.846  23.111  1.00  0.00     0.007 A 
ATOM     20  C   UNL     1       3.549 -24.890  22.750  1.00  0.00     0.004 A 
ATOM     21  C   UNL     1       6.366 -27.434  22.559  1.00  0.00     0.048 C 
BRANCH  18  22
ATOM     22  C   UNL     1       2.399 -23.433  21.004  1.00  0.00     0.013 C 
ATOM     23  C   UNL     1       3.059 -22.094  20.663  1.00  0.00     0.012 C 
ATOM     24  C   UNL     1       1.535 -23.928  19.842  1.00  0.00     0.012 C 
ENDBRANCH  18  22
ENDBRANCH  14  15
ENDBRANCH   1  14
TORSDOF 5
ENDMDL
