MODEL 1
REMARK VINA RESULT:    -5.443      0.000      0.000
REMARK INTER + INTRA:          -6.982
REMARK INTER:                  -6.398
REMARK INTRA:                  -0.584
REMARK UNBOUND:                -0.584
REMARK SMILES C#CCOc1cc(C(C)C)ccc1C
REMARK SMILES IDX 5 1 6 2 7 3 11 4 12 5 13 6 14 7 4 8 3 9 2 10 1 11 8 12 9 13
REMARK SMILES IDX 10 14
REMARK H PARENT
ROOT
ATOM      1  C   UNL     1      12.749 -23.331  23.018  1.00  0.00     0.123 A 
ATOM      2  C   UNL     1      13.624 -24.410  22.843  1.00  0.00     0.050 A 
ATOM      3  C   UNL     1      13.283 -25.703  23.280  1.00  0.00    -0.042 A 
ATOM      4  C   UNL     1      12.041 -25.895  23.898  1.00  0.00     0.004 A 
ATOM      5  C   UNL     1      11.164 -24.827  24.076  1.00  0.00     0.007 A 
ATOM      6  C   UNL     1      11.507 -23.540  23.640  1.00  0.00    -0.009 A 
ATOM      7  C   UNL     1      10.544 -22.402  23.841  1.00  0.00     0.048 C 
ENDROOT
BRANCH   1   8
ATOM      8  O   UNL     1      13.000 -22.041  22.624  1.00  0.00    -0.481 OA
BRANCH   8   9
ATOM      9  C   UNL     1      14.168 -21.407  23.140  1.00  0.00     0.318 C 
ATOM     10  C   UNL     1      13.796 -20.612  24.319  1.00  0.00    -0.065 C 
ATOM     11  C   UNL     1      13.491 -19.962  25.284  1.00  0.00     0.007 C 
ENDBRANCH   8   9
ENDBRANCH   1   8
BRANCH   3  12
ATOM     12  C   UNL     1      14.256 -26.851  23.076  1.00  0.00     0.013 C 
ATOM     13  C   UNL     1      13.859 -27.719  21.878  1.00  0.00     0.012 C 
ATOM     14  C   UNL     1      14.398 -27.700  24.341  1.00  0.00     0.012 C 
ENDBRANCH   3  12
TORSDOF 3
ENDMDL
MODEL 2
REMARK VINA RESULT:    -5.095      2.491      5.184
REMARK INTER + INTRA:          -6.572
REMARK INTER:                  -5.934
REMARK INTRA:                  -0.638
REMARK UNBOUND:                -0.584
REMARK SMILES C#CCOc1cc(C(C)C)ccc1C
REMARK SMILES IDX 5 1 6 2 7 3 11 4 12 5 13 6 14 7 4 8 3 9 2 10 1 11 8 12 9 13
REMARK SMILES IDX 10 14
REMARK H PARENT
ROOT
ATOM      1  C   UNL     1      12.523 -26.305  24.255  1.00  0.00     0.123 A 
ATOM      2  C   UNL     1      11.453 -27.082  24.716  1.00  0.00     0.050 A 
ATOM      3  C   UNL     1      10.121 -26.669  24.535  1.00  0.00    -0.042 A 
ATOM      4  C   UNL     1       9.879 -25.454  23.882  1.00  0.00     0.004 A 
ATOM      5  C   UNL     1      10.938 -24.673  23.420  1.00  0.00     0.007 A 
ATOM      6  C   UNL     1      12.264 -25.088  23.601  1.00  0.00    -0.009 A 
ATOM      7  C   UNL     1      13.391 -24.231  23.094  1.00  0.00     0.048 C 
ENDROOT
BRANCH   1   8
ATOM      8  O   UNL     1      13.848 -26.631  24.388  1.00  0.00    -0.481 OA
BRANCH   8   9
ATOM      9  C   UNL     1      14.266 -27.910  23.920  1.00  0.00     0.318 C 
ATOM     10  C   UNL     1      14.225 -27.915  22.450  1.00  0.00    -0.065 C 
ATOM     11  C   UNL     1      14.192 -27.920  21.249  1.00  0.00     0.007 C 
ENDBRANCH   8   9
ENDBRANCH   1   8
BRANCH   3  12
ATOM     12  C   UNL     1       8.984 -27.536  25.048  1.00  0.00     0.013 C 
ATOM     13  C   UNL     1       7.621 -26.992  24.611  1.00  0.00     0.012 C 
ATOM     14  C   UNL     1       9.043 -27.702  26.568  1.00  0.00     0.012 C 
ENDBRANCH   3  12
TORSDOF 3
ENDMDL
MODEL 3
REMARK VINA RESULT:    -5.086      3.056      4.737
REMARK INTER + INTRA:          -6.562
REMARK INTER:                  -6.140
REMARK INTRA:                  -0.422
REMARK UNBOUND:                -0.584
REMARK SMILES C#CCOc1cc(C(C)C)ccc1C
REMARK SMILES IDX 5 1 6 2 7 3 11 4 12 5 13 6 14 7 4 8 3 9 2 10 1 11 8 12 9 13
REMARK SMILES IDX 10 14
REMARK H PARENT
ROOT
ATOM      1  C   UNL     1      10.649 -25.459  22.158  1.00  0.00     0.123 A 
ATOM      2  C   UNL     1      11.736 -26.320  22.343  1.00  0.00     0.050 A 
ATOM      3  C   UNL     1      13.007 -25.825  22.689  1.00  0.00    -0.042 A 
ATOM      4  C   UNL     1      13.168 -24.443  22.845  1.00  0.00     0.004 A 
ATOM      5  C   UNL     1      12.090 -23.577  22.663  1.00  0.00     0.007 A 
ATOM      6  C   UNL     1      10.825 -24.074  22.318  1.00  0.00    -0.009 A 
ATOM      7  C   UNL     1       9.677 -23.122  22.127  1.00  0.00     0.048 C 
ENDROOT
BRANCH   1   8
ATOM      8  O   UNL     1       9.379 -25.854  21.821  1.00  0.00    -0.481 OA
BRANCH   8   9
ATOM      9  C   UNL     1       9.243 -26.895  20.857  1.00  0.00     0.318 C 
ATOM     10  C   UNL     1       8.495 -26.380  19.702  1.00  0.00    -0.065 C 
ATOM     11  C   UNL     1       7.883 -25.958  18.757  1.00  0.00     0.007 C 
ENDBRANCH   8   9
ENDBRANCH   1   8
BRANCH   3  12
ATOM     12  C   UNL     1      14.166 -26.787  22.882  1.00  0.00     0.013 C 
ATOM     13  C   UNL     1      14.187 -27.868  21.798  1.00  0.00     0.012 C 
ATOM     14  C   UNL     1      14.151 -27.415  24.278  1.00  0.00     0.012 C 
ENDBRANCH   3  12
TORSDOF 3
ENDMDL
MODEL 4
REMARK VINA RESULT:    -4.806      1.354      5.019
REMARK INTER + INTRA:          -6.232
REMARK INTER:                  -5.844
REMARK INTRA:                  -0.388
REMARK UNBOUND:                -0.584
REMARK SMILES C#CCOc1cc(C(C)C)ccc1C
REMARK SMILES IDX 5 1 6 2 7 3 11 4 12 5 13 6 14 7 4 8 3 9 2 10 1 11 8 12 9 13
REMARK SMILES IDX 10 14
REMARK H PARENT
ROOT
ATOM      1  C   UNL     1      12.423 -24.321  22.958  1.00  0.00     0.123 A 
ATOM      2  C   UNL     1      13.159 -23.133  22.876  1.00  0.00     0.050 A 
ATOM      3  C   UNL     1      12.642 -21.921  23.367  1.00  0.00    -0.042 A 
ATOM      4  C   UNL     1      11.366 -21.921  23.944  1.00  0.00     0.004 A 
ATOM      5  C   UNL     1      10.626 -23.100  24.030  1.00  0.00     0.007 A 
ATOM      6  C   UNL     1      11.144 -24.306  23.540  1.00  0.00    -0.009 A 
ATOM      7  C   UNL     1      10.329 -25.566  23.643  1.00  0.00     0.048 C 
ENDROOT
BRANCH   1   8
ATOM      8  O   UNL     1      12.849 -25.545  22.506  1.00  0.00    -0.481 OA
BRANCH   8   9
ATOM      9  C   UNL     1      14.180 -25.941  22.823  1.00  0.00     0.318 C 
ATOM     10  C   UNL     1      14.195 -27.387  23.091  1.00  0.00    -0.065 C 
ATOM     11  C   UNL     1      14.207 -28.569  23.311  1.00  0.00     0.007 C 
ENDBRANCH   8   9
ENDBRANCH   1   8
BRANCH   3  12
ATOM     12  C   UNL     1      13.467 -20.650  23.262  1.00  0.00     0.013 C 
ATOM     13  C   UNL     1      14.738 -20.870  22.438  1.00  0.00     0.012 C 
ATOM     14  C   UNL     1      13.803 -20.081  24.642  1.00  0.00     0.012 C 
ENDBRANCH   3  12
TORSDOF 3
ENDMDL
MODEL 5
REMARK VINA RESULT:    -4.798      2.003      3.927
REMARK INTER + INTRA:          -6.223
REMARK INTER:                  -5.585
REMARK INTRA:                  -0.638
REMARK UNBOUND:                -0.584
REMARK SMILES C#CCOc1cc(C(C)C)ccc1C
REMARK SMILES IDX 5 1 6 2 7 3 11 4 12 5 13 6 14 7 4 8 3 9 2 10 1 11 8 12 9 13
REMARK SMILES IDX 10 14
REMARK H PARENT
ROOT
ATOM      1  C   UNL     1      11.006 -24.811  23.969  1.00  0.00     0.123 A 
ATOM      2  C   UNL     1      11.585 -26.086  23.942  1.00  0.00     0.050 A 
ATOM      3  C   UNL     1      12.895 -26.280  23.468  1.00  0.00    -0.042 A 
ATOM      4  C   UNL     1      13.618 -25.168  23.018  1.00  0.00     0.004 A 
ATOM      5  C   UNL     1      13.048 -23.895  23.041  1.00  0.00     0.007 A 
ATOM      6  C   UNL     1      11.743 -23.705  23.514  1.00  0.00    -0.009 A 
ATOM      7  C   UNL     1      11.150 -22.323  23.532  1.00  0.00     0.048 C 
ENDROOT
BRANCH   1   8
ATOM      8  O   UNL     1       9.739 -24.531  24.413  1.00  0.00    -0.481 OA
BRANCH   8   9
ATOM      9  C   UNL     1       8.657 -25.246  23.823  1.00  0.00     0.318 C 
ATOM     10  C   UNL     1       8.468 -24.771  22.444  1.00  0.00    -0.065 C 
ATOM     11  C   UNL     1       8.314 -24.383  21.317  1.00  0.00     0.007 C 
ENDBRANCH   8   9
ENDBRANCH   1   8
BRANCH   3  12
ATOM     12  C   UNL     1      13.494 -27.676  23.451  1.00  0.00     0.013 C 
ATOM     13  C   UNL     1      14.561 -27.844  24.536  1.00  0.00     0.012 C 
ATOM     14  C   UNL     1      14.056 -28.032  22.073  1.00  0.00     0.012 C 
ENDBRANCH   3  12
TORSDOF 3
ENDMDL
MODEL 6
REMARK VINA RESULT:    -4.792      3.086      5.038
REMARK INTER + INTRA:          -6.217
REMARK INTER:                  -5.817
REMARK INTRA:                  -0.400
REMARK UNBOUND:                -0.584
REMARK SMILES C#CCOc1cc(C(C)C)ccc1C
REMARK SMILES IDX 5 1 6 2 7 3 11 4 12 5 13 6 14 7 4 8 3 9 2 10 1 11 8 12 9 13
REMARK SMILES IDX 10 14
REMARK H PARENT
ROOT
ATOM      1  C   UNL     1      11.687 -25.401  22.695  1.00  0.00     0.123 A 
ATOM      2  C   UNL     1      10.903 -26.307  21.969  1.00  0.00     0.050 A 
ATOM      3  C   UNL     1       9.768 -25.880  21.258  1.00  0.00    -0.042 A 
ATOM      4  C   UNL     1       9.429 -24.521  21.288  1.00  0.00     0.004 A 
ATOM      5  C   UNL     1      10.204 -23.612  22.009  1.00  0.00     0.007 A 
ATOM      6  C   UNL     1      11.335 -24.041  22.716  1.00  0.00    -0.009 A 
ATOM      7  C   UNL     1      12.156 -23.044  23.485  1.00  0.00     0.048 C 
ENDROOT
BRANCH   1   8
ATOM      8  O   UNL     1      12.808 -25.729  23.415  1.00  0.00    -0.481 OA
BRANCH   8   9
ATOM      9  C   UNL     1      13.949 -26.183  22.693  1.00  0.00     0.318 C 
ATOM     10  C   UNL     1      14.211 -27.586  23.049  1.00  0.00    -0.065 C 
ATOM     11  C   UNL     1      14.425 -28.732  23.341  1.00  0.00     0.007 C 
ENDBRANCH   8   9
ENDBRANCH   1   8
BRANCH   3  12
ATOM     12  C   UNL     1       8.939 -26.888  20.481  1.00  0.00     0.013 C 
ATOM     13  C   UNL     1       8.170 -26.222  19.338  1.00  0.00     0.012 C 
ATOM     14  C   UNL     1       7.990 -27.663  21.399  1.00  0.00     0.012 C 
ENDBRANCH   3  12
TORSDOF 3
ENDMDL
MODEL 7
REMARK VINA RESULT:    -4.708      3.028      5.639
REMARK INTER + INTRA:          -6.118
REMARK INTER:                  -5.765
REMARK INTRA:                  -0.354
REMARK UNBOUND:                -0.584
REMARK SMILES C#CCOc1cc(C(C)C)ccc1C
REMARK SMILES IDX 5 1 6 2 7 3 11 4 12 5 13 6 14 7 4 8 3 9 2 10 1 11 8 12 9 13
REMARK SMILES IDX 10 14
REMARK H PARENT
ROOT
ATOM      1  C   UNL     1      11.079 -25.471  21.949  1.00  0.00     0.123 A 
ATOM      2  C   UNL     1      11.300 -24.092  22.038  1.00  0.00     0.050 A 
ATOM      3  C   UNL     1      12.471 -23.578  22.624  1.00  0.00    -0.042 A 
ATOM      4  C   UNL     1      13.421 -24.478  23.123  1.00  0.00     0.004 A 
ATOM      5  C   UNL     1      13.209 -25.854  23.039  1.00  0.00     0.007 A 
ATOM      6  C   UNL     1      12.041 -26.362  22.454  1.00  0.00    -0.009 A 
ATOM      7  C   UNL     1      11.834 -27.849  22.372  1.00  0.00     0.048 C 
ENDROOT
BRANCH   1   8
ATOM      8  O   UNL     1       9.969 -26.057  21.396  1.00  0.00    -0.481 OA
BRANCH   8   9
ATOM      9  C   UNL     1       8.859 -25.217  21.090  1.00  0.00     0.318 C 
ATOM     10  C   UNL     1       8.289 -25.632  19.800  1.00  0.00    -0.065 C 
ATOM     11  C   UNL     1       7.822 -25.971  18.746  1.00  0.00     0.007 C 
ENDBRANCH   8   9
ENDBRANCH   1   8
BRANCH   3  12
ATOM     12  C   UNL     1      12.679 -22.076  22.706  1.00  0.00     0.013 C 
ATOM     13  C   UNL     1      14.116 -21.728  23.105  1.00  0.00     0.012 C 
ATOM     14  C   UNL     1      11.675 -21.419  23.656  1.00  0.00     0.012 C 
ENDBRANCH   3  12
TORSDOF 3
ENDMDL
MODEL 8
REMARK VINA RESULT:    -4.687      5.727      8.341
REMARK INTER + INTRA:          -6.093
REMARK INTER:                  -5.742
REMARK INTRA:                  -0.351
REMARK UNBOUND:                -0.584
REMARK SMILES C#CCOc1cc(C(C)C)ccc1C
REMARK SMILES IDX 5 1 6 2 7 3 11 4 12 5 13 6 14 7 4 8 3 9 2 10 1 11 8 12 9 13
REMARK SMILES IDX 10 14
REMARK H PARENT
ROOT
ATOM      1  C   UNL     1       9.102 -28.172  21.675  1.00  0.00     0.123 A 
ATOM      2  C   UNL     1       8.040 -27.565  20.994  1.00  0.00     0.050 A 
ATOM      3  C   UNL     1       8.098 -26.212  20.613  1.00  0.00    -0.042 A 
ATOM      4  C   UNL     1       9.245 -25.474  20.930  1.00  0.00     0.004 A 
ATOM      5  C   UNL     1      10.308 -26.071  21.609  1.00  0.00     0.007 A 
ATOM      6  C   UNL     1      10.248 -27.419  21.986  1.00  0.00    -0.009 A 
ATOM      7  C   UNL     1      11.405 -28.043  22.716  1.00  0.00     0.048 C 
ENDROOT
BRANCH   1   8
ATOM      8  O   UNL     1       9.131 -29.481  22.083  1.00  0.00    -0.481 OA
BRANCH   8   9
ATOM      9  C   UNL     1       7.930 -30.037  22.612  1.00  0.00     0.318 C 
ATOM     10  C   UNL     1       7.749 -31.389  22.064  1.00  0.00    -0.065 C 
ATOM     11  C   UNL     1       7.602 -32.494  21.616  1.00  0.00     0.007 C 
ENDBRANCH   8   9
ENDBRANCH   1   8
BRANCH   3  12
ATOM     12  C   UNL     1       6.928 -25.584  19.876  1.00  0.00     0.013 C 
ATOM     13  C   UNL     1       5.609 -26.285  20.212  1.00  0.00     0.012 C 
ATOM     14  C   UNL     1       7.162 -25.559  18.364  1.00  0.00     0.012 C 
ENDBRANCH   3  12
TORSDOF 3
ENDMDL
