MODEL 1
REMARK VINA RESULT:    -7.697      0.000      0.000
REMARK INTER + INTRA:         -10.554
REMARK INTER:                  -9.947
REMARK INTRA:                  -0.608
REMARK UNBOUND:                -0.608
REMARK SMILES Cc1ccc(-c2cc(COc3cc(C(C)C)ccc3C)on2)cc1
REMARK SMILES IDX 9 1 8 2 6 3 7 4 22 5 21 6 5 7 2 8 3 9 24 10 4 11 23 12 1 13
REMARK SMILES IDX 10 14 11 15 12 16 19 17 13 18 18 19 17 20 20 21 14 22 15 23
REMARK SMILES IDX 16 24
REMARK H PARENT
ROOT
ATOM      1  C   UNL     1     -19.134  18.070 -28.285  1.00  0.00     0.307 C 
ENDROOT
BRANCH   1   2
ATOM      2  C   UNL     1     -19.136  19.053 -27.178  1.00  0.00     0.174 A 
ATOM      3  C   UNL     1     -19.151  20.708 -25.696  1.00  0.00     0.114 A 
ATOM      4  C   UNL     1     -19.180  20.423 -27.089  1.00  0.00     0.081 A 
ATOM      5  N   UNL     1     -19.095  19.557 -25.001  1.00  0.00    -0.079 NA
ATOM      6  O   UNL     1     -19.085  18.535 -25.925  1.00  0.00    -0.357 OA
BRANCH   3   7
ATOM      7  C   UNL     1     -19.177  22.014 -25.027  1.00  0.00     0.004 A 
ATOM      8  C   UNL     1     -19.246  24.533 -23.738  1.00  0.00    -0.051 A 
ATOM      9  C   UNL     1     -20.269  23.603 -23.534  1.00  0.00     0.004 A 
ATOM     10  C   UNL     1     -18.179  24.191 -24.572  1.00  0.00     0.004 A 
ATOM     11  C   UNL     1     -20.236  22.360 -24.175  1.00  0.00     0.011 A 
ATOM     12  C   UNL     1     -18.146  22.947 -25.214  1.00  0.00     0.011 A 
ATOM     13  C   UNL     1     -19.264  25.852 -23.025  1.00  0.00     0.044 C 
ENDBRANCH   3   7
ENDBRANCH   1   2
BRANCH   1  14
ATOM     14  O   UNL     1     -20.281  18.334 -29.091  1.00  0.00    -0.485 OA
BRANCH  14  15
ATOM     15  C   UNL     1     -20.963  17.257 -29.597  1.00  0.00     0.123 A 
ATOM     16  C   UNL     1     -20.777  15.928 -29.196  1.00  0.00     0.050 A 
ATOM     17  C   UNL     1     -21.910  17.557 -30.590  1.00  0.00    -0.009 A 
ATOM     18  C   UNL     1     -21.523  14.885 -29.769  1.00  0.00    -0.042 A 
ATOM     19  C   UNL     1     -22.655  16.518 -31.164  1.00  0.00     0.007 A 
ATOM     20  C   UNL     1     -22.464  15.197 -30.758  1.00  0.00     0.004 A 
ATOM     21  C   UNL     1     -22.134  18.973 -31.042  1.00  0.00     0.048 C 
BRANCH  18  22
ATOM     22  C   UNL     1     -21.297  13.453 -29.312  1.00  0.00     0.013 C 
ATOM     23  C   UNL     1     -20.618  13.401 -27.940  1.00  0.00     0.012 C 
ATOM     24  C   UNL     1     -22.600  12.651 -29.308  1.00  0.00     0.012 C 
ENDBRANCH  18  22
ENDBRANCH  14  15
ENDBRANCH   1  14
TORSDOF 5
ENDMDL
MODEL 2
REMARK VINA RESULT:    -7.504      0.959      2.910
REMARK INTER + INTRA:         -10.305
REMARK INTER:                  -9.689
REMARK INTRA:                  -0.616
REMARK UNBOUND:                -0.608
REMARK SMILES Cc1ccc(-c2cc(COc3cc(C(C)C)ccc3C)on2)cc1
REMARK SMILES IDX 9 1 8 2 6 3 7 4 22 5 21 6 5 7 2 8 3 9 24 10 4 11 23 12 1 13
REMARK SMILES IDX 10 14 11 15 12 16 19 17 13 18 18 19 17 20 20 21 14 22 15 23
REMARK SMILES IDX 16 24
REMARK H PARENT
ROOT
ATOM      1  C   UNL     1     -19.331  17.561 -28.481  1.00  0.00     0.307 C 
ENDROOT
BRANCH   1   2
ATOM      2  C   UNL     1     -19.264  18.565 -27.395  1.00  0.00     0.174 A 
ATOM      3  C   UNL     1     -19.178  20.248 -25.947  1.00  0.00     0.114 A 
ATOM      4  C   UNL     1     -19.270  19.938 -27.331  1.00  0.00     0.081 A 
ATOM      5  N   UNL     1     -19.122  19.109 -25.232  1.00  0.00    -0.079 NA
ATOM      6  O   UNL     1     -19.176  18.070 -26.135  1.00  0.00    -0.357 OA
BRANCH   3   7
ATOM      7  C   UNL     1     -19.144  21.567 -25.303  1.00  0.00     0.004 A 
ATOM      8  C   UNL     1     -19.059  24.109 -24.062  1.00  0.00    -0.051 A 
ATOM      9  C   UNL     1     -18.067  23.729 -24.970  1.00  0.00     0.004 A 
ATOM     10  C   UNL     1     -20.104  23.222 -23.793  1.00  0.00     0.004 A 
ATOM     11  C   UNL     1     -18.108  22.470 -25.579  1.00  0.00     0.011 A 
ATOM     12  C   UNL     1     -20.144  21.962 -24.403  1.00  0.00     0.011 A 
ATOM     13  C   UNL     1     -19.034  25.471 -23.434  1.00  0.00     0.044 C 
ENDBRANCH   3   7
ENDBRANCH   1   2
BRANCH   1  14
ATOM     14  O   UNL     1     -20.088  16.456 -27.992  1.00  0.00    -0.485 OA
BRANCH  14  15
ATOM     15  C   UNL     1     -20.999  15.884 -28.843  1.00  0.00     0.123 A 
ATOM     16  C   UNL     1     -21.557  16.513 -29.963  1.00  0.00     0.050 A 
ATOM     17  C   UNL     1     -21.371  14.566 -28.530  1.00  0.00    -0.009 A 
ATOM     18  C   UNL     1     -22.485  15.849 -30.783  1.00  0.00    -0.042 A 
ATOM     19  C   UNL     1     -22.296  13.901 -29.346  1.00  0.00     0.007 A 
ATOM     20  C   UNL     1     -22.847  14.536 -30.460  1.00  0.00     0.004 A 
ATOM     21  C   UNL     1     -20.789  13.862 -27.336  1.00  0.00     0.048 C 
BRANCH  18  22
ATOM     22  C   UNL     1     -23.073  16.561 -31.991  1.00  0.00     0.013 C 
ATOM     23  C   UNL     1     -24.602  16.611 -31.925  1.00  0.00     0.012 C 
ATOM     24  C   UNL     1     -22.487  17.965 -32.158  1.00  0.00     0.012 C 
ENDBRANCH  18  22
ENDBRANCH  14  15
ENDBRANCH   1  14
TORSDOF 5
ENDMDL
MODEL 3
REMARK VINA RESULT:    -7.480      2.541      4.121
REMARK INTER + INTRA:         -10.274
REMARK INTER:                  -9.422
REMARK INTRA:                  -0.853
REMARK UNBOUND:                -0.608
REMARK SMILES Cc1ccc(-c2cc(COc3cc(C(C)C)ccc3C)on2)cc1
REMARK SMILES IDX 9 1 8 2 6 3 7 4 22 5 21 6 5 7 2 8 3 9 24 10 4 11 23 12 1 13
REMARK SMILES IDX 10 14 11 15 12 16 19 17 13 18 18 19 17 20 20 21 14 22 15 23
REMARK SMILES IDX 16 24
REMARK H PARENT
ROOT
ATOM      1  C   UNL     1     -23.695  17.450 -26.117  1.00  0.00     0.307 C 
ENDROOT
BRANCH   1   2
ATOM      2  C   UNL     1     -22.519  18.286 -26.452  1.00  0.00     0.174 A 
ATOM      3  C   UNL     1     -20.711  19.552 -26.707  1.00  0.00     0.114 A 
ATOM      4  C   UNL     1     -21.532  18.917 -25.735  1.00  0.00     0.081 A 
ATOM      5  N   UNL     1     -21.195  19.303 -27.938  1.00  0.00    -0.079 NA
ATOM      6  O   UNL     1     -22.315  18.518 -27.774  1.00  0.00    -0.357 OA
BRANCH   3   7
ATOM      7  C   UNL     1     -19.509  20.368 -26.499  1.00  0.00     0.004 A 
ATOM      8  C   UNL     1     -17.179  21.924 -26.101  1.00  0.00    -0.051 A 
ATOM      9  C   UNL     1     -17.181  20.873 -27.023  1.00  0.00     0.004 A 
ATOM     10  C   UNL     1     -18.351  22.207 -25.396  1.00  0.00     0.004 A 
ATOM     11  C   UNL     1     -18.332  20.102 -27.215  1.00  0.00     0.011 A 
ATOM     12  C   UNL     1     -19.502  21.434 -25.588  1.00  0.00     0.011 A 
ATOM     13  C   UNL     1     -15.956  22.773 -25.919  1.00  0.00     0.044 C 
ENDBRANCH   3   7
ENDBRANCH   1   2
BRANCH   1  14
ATOM     14  O   UNL     1     -23.216  16.308 -25.409  1.00  0.00    -0.485 OA
BRANCH  14  15
ATOM     15  C   UNL     1     -22.369  15.459 -26.073  1.00  0.00     0.123 A 
ATOM     16  C   UNL     1     -22.570  14.979 -27.374  1.00  0.00     0.050 A 
ATOM     17  C   UNL     1     -21.226  15.066 -25.357  1.00  0.00    -0.009 A 
ATOM     18  C   UNL     1     -21.646  14.110 -27.978  1.00  0.00    -0.042 A 
ATOM     19  C   UNL     1     -20.303  14.200 -25.957  1.00  0.00     0.007 A 
ATOM     20  C   UNL     1     -20.511  13.727 -27.254  1.00  0.00     0.004 A 
ATOM     21  C   UNL     1     -20.981  15.564 -23.959  1.00  0.00     0.048 C 
BRANCH  18  22
ATOM     22  C   UNL     1     -21.893  13.607 -29.391  1.00  0.00     0.013 C 
ATOM     23  C   UNL     1     -22.642  12.272 -29.390  1.00  0.00     0.012 C 
ATOM     24  C   UNL     1     -22.631  14.647 -30.238  1.00  0.00     0.012 C 
ENDBRANCH  18  22
ENDBRANCH  14  15
ENDBRANCH   1  14
TORSDOF 5
ENDMDL
MODEL 4
REMARK VINA RESULT:    -7.434      1.553      2.546
REMARK INTER + INTRA:         -10.215
REMARK INTER:                  -9.450
REMARK INTRA:                  -0.765
REMARK UNBOUND:                -0.608
REMARK SMILES Cc1ccc(-c2cc(COc3cc(C(C)C)ccc3C)on2)cc1
REMARK SMILES IDX 9 1 8 2 6 3 7 4 22 5 21 6 5 7 2 8 3 9 24 10 4 11 23 12 1 13
REMARK SMILES IDX 10 14 11 15 12 16 19 17 13 18 18 19 17 20 20 21 14 22 15 23
REMARK SMILES IDX 16 24
REMARK H PARENT
ROOT
ATOM      1  C   UNL     1     -19.541  18.208 -28.435  1.00  0.00     0.307 C 
ENDROOT
BRANCH   1   2
ATOM      2  C   UNL     1     -19.172  19.316 -27.523  1.00  0.00     0.174 A 
ATOM      3  C   UNL     1     -18.865  21.031 -26.146  1.00  0.00     0.114 A 
ATOM      4  C   UNL     1     -19.858  20.299 -26.853  1.00  0.00     0.081 A 
ATOM      5  N   UNL     1     -17.653  20.500 -26.390  1.00  0.00    -0.079 NA
ATOM      6  O   UNL     1     -17.850  19.437 -27.244  1.00  0.00    -0.357 OA
BRANCH   3   7
ATOM      7  C   UNL     1     -19.036  22.193 -25.266  1.00  0.00     0.004 A 
ATOM      8  C   UNL     1     -19.387  24.432 -23.570  1.00  0.00    -0.051 A 
ATOM      9  C   UNL     1     -20.272  23.353 -23.512  1.00  0.00     0.004 A 
ATOM     10  C   UNL     1     -18.313  24.379 -24.463  1.00  0.00     0.004 A 
ATOM     11  C   UNL     1     -20.101  22.249 -24.355  1.00  0.00     0.011 A 
ATOM     12  C   UNL     1     -18.143  23.274 -25.306  1.00  0.00     0.011 A 
ATOM     13  C   UNL     1     -19.550  25.601 -22.644  1.00  0.00     0.044 C 
ENDBRANCH   3   7
ENDBRANCH   1   2
BRANCH   1  14
ATOM     14  O   UNL     1     -19.287  16.987 -27.745  1.00  0.00    -0.485 OA
BRANCH  14  15
ATOM     15  C   UNL     1     -20.345  16.137 -27.549  1.00  0.00     0.123 A 
ATOM     16  C   UNL     1     -21.049  15.483 -28.567  1.00  0.00     0.050 A 
ATOM     17  C   UNL     1     -20.716  15.935 -26.209  1.00  0.00    -0.009 A 
ATOM     18  C   UNL     1     -22.123  14.626 -28.274  1.00  0.00    -0.042 A 
ATOM     19  C   UNL     1     -21.786  15.082 -25.913  1.00  0.00     0.007 A 
ATOM     20  C   UNL     1     -22.482  14.434 -26.934  1.00  0.00     0.004 A 
ATOM     21  C   UNL     1     -19.979  16.622 -25.092  1.00  0.00     0.048 C 
BRANCH  18  22
ATOM     22  C   UNL     1     -22.868  13.931 -29.403  1.00  0.00     0.013 C 
ATOM     23  C   UNL     1     -22.642  14.636 -30.743  1.00  0.00     0.012 C 
ATOM     24  C   UNL     1     -22.495  12.449 -29.495  1.00  0.00     0.012 C 
ENDBRANCH  18  22
ENDBRANCH  14  15
ENDBRANCH   1  14
TORSDOF 5
ENDMDL
MODEL 5
REMARK VINA RESULT:    -7.383      4.128      6.072
REMARK INTER + INTRA:         -10.149
REMARK INTER:                  -9.190
REMARK INTRA:                  -0.958
REMARK UNBOUND:                -0.608
REMARK SMILES Cc1ccc(-c2cc(COc3cc(C(C)C)ccc3C)on2)cc1
REMARK SMILES IDX 9 1 8 2 6 3 7 4 22 5 21 6 5 7 2 8 3 9 24 10 4 11 23 12 1 13
REMARK SMILES IDX 10 14 11 15 12 16 19 17 13 18 18 19 17 20 20 21 14 22 15 23
REMARK SMILES IDX 16 24
REMARK H PARENT
ROOT
ATOM      1  C   UNL     1     -19.587  17.625 -27.859  1.00  0.00     0.307 C 
ENDROOT
BRANCH   1   2
ATOM      2  C   UNL     1     -20.309  17.268 -26.617  1.00  0.00     0.174 A 
ATOM      3  C   UNL     1     -21.211  16.561 -24.714  1.00  0.00     0.114 A 
ATOM      4  C   UNL     1     -20.118  16.363 -25.601  1.00  0.00     0.081 A 
ATOM      5  N   UNL     1     -22.006  17.538 -25.187  1.00  0.00    -0.079 NA
ATOM      6  O   UNL     1     -21.442  17.972 -26.367  1.00  0.00    -0.357 OA
BRANCH   3   7
ATOM      7  C   UNL     1     -21.510  15.862 -23.458  1.00  0.00     0.004 A 
ATOM      8  C   UNL     1     -22.085  14.532 -21.027  1.00  0.00    -0.051 A 
ATOM      9  C   UNL     1     -22.594  15.810 -21.274  1.00  0.00     0.004 A 
ATOM     10  C   UNL     1     -21.306  13.914 -22.008  1.00  0.00     0.004 A 
ATOM     11  C   UNL     1     -22.305  16.468 -22.474  1.00  0.00     0.011 A 
ATOM     12  C   UNL     1     -21.016  14.574 -23.208  1.00  0.00     0.011 A 
ATOM     13  C   UNL     1     -22.423  13.812 -19.755  1.00  0.00     0.044 C 
ENDBRANCH   3   7
ENDBRANCH   1   2
BRANCH   1  14
ATOM     14  O   UNL     1     -19.524  16.451 -28.667  1.00  0.00    -0.485 OA
BRANCH  14  15
ATOM     15  C   UNL     1     -20.658  16.087 -29.347  1.00  0.00     0.123 A 
ATOM     16  C   UNL     1     -21.475  16.963 -30.072  1.00  0.00     0.050 A 
ATOM     17  C   UNL     1     -20.986  14.723 -29.283  1.00  0.00    -0.009 A 
ATOM     18  C   UNL     1     -22.622  16.502 -30.741  1.00  0.00    -0.042 A 
ATOM     19  C   UNL     1     -22.129  14.260 -29.949  1.00  0.00     0.007 A 
ATOM     20  C   UNL     1     -22.937  15.139 -30.670  1.00  0.00     0.004 A 
ATOM     21  C   UNL     1     -20.129  13.756 -28.514  1.00  0.00     0.048 C 
BRANCH  18  22
ATOM     22  C   UNL     1     -23.488  17.478 -31.520  1.00  0.00     0.013 C 
ATOM     23  C   UNL     1     -22.726  18.763 -31.855  1.00  0.00     0.012 C 
ATOM     24  C   UNL     1     -24.062  16.836 -32.785  1.00  0.00     0.012 C 
ENDBRANCH  18  22
ENDBRANCH  14  15
ENDBRANCH   1  14
TORSDOF 5
ENDMDL
MODEL 6
REMARK VINA RESULT:    -7.347      5.008      6.955
REMARK INTER + INTRA:         -10.102
REMARK INTER:                  -9.392
REMARK INTRA:                  -0.710
REMARK UNBOUND:                -0.608
REMARK SMILES Cc1ccc(-c2cc(COc3cc(C(C)C)ccc3C)on2)cc1
REMARK SMILES IDX 9 1 8 2 6 3 7 4 22 5 21 6 5 7 2 8 3 9 24 10 4 11 23 12 1 13
REMARK SMILES IDX 10 14 11 15 12 16 19 17 13 18 18 19 17 20 20 21 14 22 15 23
REMARK SMILES IDX 16 24
REMARK H PARENT
ROOT
ATOM      1  C   UNL     1     -22.394  15.298 -31.089  1.00  0.00     0.307 C 
ENDROOT
BRANCH   1   2
ATOM      2  C   UNL     1     -22.253  14.960 -29.654  1.00  0.00     0.174 A 
ATOM      3  C   UNL     1     -21.947  14.685 -27.471  1.00  0.00     0.114 A 
ATOM      4  C   UNL     1     -21.792  15.613 -28.537  1.00  0.00     0.081 A 
ATOM      5  N   UNL     1     -22.477  13.541 -27.941  1.00  0.00    -0.079 NA
ATOM      6  O   UNL     1     -22.664  13.717 -29.295  1.00  0.00    -0.357 OA
BRANCH   3   7
ATOM      7  C   UNL     1     -21.614  14.856 -26.052  1.00  0.00     0.004 A 
ATOM      8  C   UNL     1     -20.966  15.167 -23.314  1.00  0.00    -0.051 A 
ATOM      9  C   UNL     1     -20.187  14.351 -24.139  1.00  0.00     0.004 A 
ATOM     10  C   UNL     1     -22.056  15.843 -23.867  1.00  0.00     0.004 A 
ATOM     11  C   UNL     1     -20.511  14.195 -25.491  1.00  0.00     0.011 A 
ATOM     12  C   UNL     1     -22.381  15.685 -25.220  1.00  0.00     0.011 A 
ATOM     13  C   UNL     1     -20.599  15.362 -21.873  1.00  0.00     0.044 C 
ENDBRANCH   3   7
ENDBRANCH   1   2
BRANCH   1  14
ATOM     14  O   UNL     1     -23.598  16.049 -31.233  1.00  0.00    -0.485 OA
BRANCH  14  15
ATOM     15  C   UNL     1     -23.483  17.388 -31.502  1.00  0.00     0.123 A 
ATOM     16  C   UNL     1     -22.327  18.152 -31.298  1.00  0.00     0.050 A 
ATOM     17  C   UNL     1     -24.636  17.999 -32.022  1.00  0.00    -0.009 A 
ATOM     18  C   UNL     1     -22.298  19.523 -31.603  1.00  0.00    -0.042 A 
ATOM     19  C   UNL     1     -24.610  19.366 -32.328  1.00  0.00     0.007 A 
ATOM     20  C   UNL     1     -23.454  20.120 -32.121  1.00  0.00     0.004 A 
ATOM     21  C   UNL     1     -25.893  17.207 -32.254  1.00  0.00     0.048 C 
BRANCH  18  22
ATOM     22  C   UNL     1     -21.027  20.324 -31.370  1.00  0.00     0.013 C 
ATOM     23  C   UNL     1     -20.260  20.555 -32.674  1.00  0.00     0.012 C 
ATOM     24  C   UNL     1     -21.320  21.651 -30.665  1.00  0.00     0.012 C 
ENDBRANCH  18  22
ENDBRANCH  14  15
ENDBRANCH   1  14
TORSDOF 5
ENDMDL
MODEL 7
REMARK VINA RESULT:    -7.167      2.955      8.724
REMARK INTER + INTRA:          -9.870
REMARK INTER:                  -9.164
REMARK INTRA:                  -0.705
REMARK UNBOUND:                -0.608
REMARK SMILES Cc1ccc(-c2cc(COc3cc(C(C)C)ccc3C)on2)cc1
REMARK SMILES IDX 9 1 8 2 6 3 7 4 22 5 21 6 5 7 2 8 3 9 24 10 4 11 23 12 1 13
REMARK SMILES IDX 10 14 11 15 12 16 19 17 13 18 18 19 17 20 20 21 14 22 15 23
REMARK SMILES IDX 16 24
REMARK H PARENT
ROOT
ATOM      1  C   UNL     1     -20.622  19.663 -22.967  1.00  0.00     0.307 C 
ENDROOT
BRANCH   1   2
ATOM      2  C   UNL     1     -20.846  18.355 -23.626  1.00  0.00     0.174 A 
ATOM      3  C   UNL     1     -21.173  16.519 -24.832  1.00  0.00     0.114 A 
ATOM      4  C   UNL     1     -20.971  17.923 -24.924  1.00  0.00     0.081 A 
ATOM      5  N   UNL     1     -21.165  16.145 -23.539  1.00  0.00    -0.079 NA
ATOM      6  O   UNL     1     -20.962  17.287 -22.796  1.00  0.00    -0.357 OA
BRANCH   3   7
ATOM      7  C   UNL     1     -21.367  15.548 -25.916  1.00  0.00     0.004 A 
ATOM      8  C   UNL     1     -21.758  13.671 -27.998  1.00  0.00    -0.051 A 
ATOM      9  C   UNL     1     -22.844  14.357 -27.448  1.00  0.00     0.004 A 
ATOM     10  C   UNL     1     -20.474  13.943 -27.518  1.00  0.00     0.004 A 
ATOM     11  C   UNL     1     -22.650  15.281 -26.416  1.00  0.00     0.011 A 
ATOM     12  C   UNL     1     -20.281  14.867 -26.485  1.00  0.00     0.011 A 
ATOM     13  C   UNL     1     -21.961  12.706 -29.128  1.00  0.00     0.044 C 
ENDBRANCH   3   7
ENDBRANCH   1   2
BRANCH   1  14
ATOM     14  O   UNL     1     -21.097  20.673 -23.857  1.00  0.00    -0.485 OA
BRANCH  14  15
ATOM     15  C   UNL     1     -20.212  21.647 -24.241  1.00  0.00     0.123 A 
ATOM     16  C   UNL     1     -19.143  21.458 -25.126  1.00  0.00     0.050 A 
ATOM     17  C   UNL     1     -20.432  22.916 -23.680  1.00  0.00    -0.009 A 
ATOM     18  C   UNL     1     -18.284  22.516 -25.465  1.00  0.00    -0.042 A 
ATOM     19  C   UNL     1     -19.578  23.974 -24.016  1.00  0.00     0.007 A 
ATOM     20  C   UNL     1     -18.515  23.776 -24.899  1.00  0.00     0.004 A 
ATOM     21  C   UNL     1     -21.571  23.152 -22.727  1.00  0.00     0.048 C 
BRANCH  18  22
ATOM     22  C   UNL     1     -17.133  22.278 -26.429  1.00  0.00     0.013 C 
ATOM     23  C   UNL     1     -15.780  22.555 -25.768  1.00  0.00     0.012 C 
ATOM     24  C   UNL     1     -17.175  20.866 -27.017  1.00  0.00     0.012 C 
ENDBRANCH  18  22
ENDBRANCH  14  15
ENDBRANCH   1  14
TORSDOF 5
ENDMDL
MODEL 8
REMARK VINA RESULT:    -7.166      3.566      5.042
REMARK INTER + INTRA:          -9.869
REMARK INTER:                  -9.297
REMARK INTRA:                  -0.571
REMARK UNBOUND:                -0.608
REMARK SMILES Cc1ccc(-c2cc(COc3cc(C(C)C)ccc3C)on2)cc1
REMARK SMILES IDX 9 1 8 2 6 3 7 4 22 5 21 6 5 7 2 8 3 9 24 10 4 11 23 12 1 13
REMARK SMILES IDX 10 14 11 15 12 16 19 17 13 18 18 19 17 20 20 21 14 22 15 23
REMARK SMILES IDX 16 24
REMARK H PARENT
ROOT
ATOM      1  C   UNL     1     -20.842  19.247 -28.315  1.00  0.00     0.307 C 
ENDROOT
BRANCH   1   2
ATOM      2  C   UNL     1     -20.680  18.477 -27.060  1.00  0.00     0.174 A 
ATOM      3  C   UNL     1     -20.684  17.264 -25.200  1.00  0.00     0.114 A 
ATOM      4  C   UNL     1     -21.507  17.721 -26.265  1.00  0.00     0.081 A 
ATOM      5  N   UNL     1     -19.432  17.729 -25.364  1.00  0.00    -0.079 NA
ATOM      6  O   UNL     1     -19.436  18.481 -26.519  1.00  0.00    -0.357 OA
BRANCH   3   7
ATOM      7  C   UNL     1     -21.049  16.415 -24.059  1.00  0.00     0.004 A 
ATOM      8  C   UNL     1     -21.754  14.796 -21.847  1.00  0.00    -0.051 A 
ATOM      9  C   UNL     1     -22.265  16.091 -21.970  1.00  0.00     0.004 A 
ATOM     10  C   UNL     1     -20.906  14.307 -22.844  1.00  0.00     0.004 A 
ATOM     11  C   UNL     1     -21.912  16.892 -23.061  1.00  0.00     0.011 A 
ATOM     12  C   UNL     1     -20.553  15.110 -23.936  1.00  0.00     0.011 A 
ATOM     13  C   UNL     1     -22.158  13.925 -20.695  1.00  0.00     0.044 C 
ENDBRANCH   3   7
ENDBRANCH   1   2
BRANCH   1  14
ATOM     14  O   UNL     1     -20.287  18.463 -29.370  1.00  0.00    -0.485 OA
BRANCH  14  15
ATOM     15  C   UNL     1     -20.955  17.321 -29.730  1.00  0.00     0.123 A 
ATOM     16  C   UNL     1     -20.715  16.049 -29.196  1.00  0.00     0.050 A 
ATOM     17  C   UNL     1     -21.946  17.487 -30.712  1.00  0.00    -0.009 A 
ATOM     18  C   UNL     1     -21.450  14.930 -29.625  1.00  0.00    -0.042 A 
ATOM     19  C   UNL     1     -22.680  16.374 -31.142  1.00  0.00     0.007 A 
ATOM     20  C   UNL     1     -22.435  15.110 -30.604  1.00  0.00     0.004 A 
ATOM     21  C   UNL     1     -22.228  18.840 -31.305  1.00  0.00     0.048 C 
BRANCH  18  22
ATOM     22  C   UNL     1     -21.166  13.563 -29.026  1.00  0.00     0.013 C 
ATOM     23  C   UNL     1     -20.745  13.668 -27.557  1.00  0.00     0.012 C 
ATOM     24  C   UNL     1     -22.360  12.619 -29.186  1.00  0.00     0.012 C 
ENDBRANCH  18  22
ENDBRANCH  14  15
ENDBRANCH   1  14
TORSDOF 5
ENDMDL
