MODEL 1
REMARK VINA RESULT:    -4.962      0.000      0.000
REMARK INTER + INTRA:          -5.522
REMARK INTER:                  -5.397
REMARK INTRA:                  -0.126
REMARK UNBOUND:                -0.126
REMARK SMILES Cc1ccc(C(C)C)cc1O
REMARK SMILES IDX 1 1 2 2 3 3 4 4 5 5 9 6 10 7 11 8 6 10 7 11 8 12
REMARK H PARENT 11 9
ROOT
ATOM      1  C   UNL     1     -20.099  15.269 -24.114  1.00  0.00     0.048 C 
ATOM      2  C   UNL     1     -20.821  14.913 -25.381  1.00  0.00    -0.009 A 
ATOM      3  C   UNL     1     -20.182  14.108 -26.335  1.00  0.00     0.007 A 
ATOM      4  C   UNL     1     -20.825  13.757 -27.526  1.00  0.00     0.004 A 
ATOM      5  C   UNL     1     -22.125  14.202 -27.798  1.00  0.00    -0.042 A 
ATOM      6  C   UNL     1     -22.763  15.007 -26.845  1.00  0.00     0.050 A 
ATOM      7  C   UNL     1     -22.119  15.355 -25.657  1.00  0.00     0.118 A 
ENDROOT
BRANCH   7   8
ATOM      8  O   UNL     1     -22.832  16.144 -24.798  1.00  0.00    -0.508 OA
ATOM      9  H   UNL     1     -22.261  16.410 -24.061  1.00  0.00     0.293 HD
ENDBRANCH   7   8
BRANCH   5  10
ATOM     10  C   UNL     1     -22.805  13.811 -29.097  1.00  0.00     0.013 C 
ATOM     11  C   UNL     1     -22.381  14.724 -30.250  1.00  0.00     0.012 C 
ATOM     12  C   UNL     1     -22.552  12.341 -29.444  1.00  0.00     0.012 C 
ENDBRANCH   5  10
TORSDOF 2
ENDMDL
MODEL 2
REMARK VINA RESULT:    -4.959      2.121      4.669
REMARK INTER + INTRA:          -5.520
REMARK INTER:                  -5.395
REMARK INTRA:                  -0.125
REMARK UNBOUND:                -0.126
REMARK SMILES Cc1ccc(C(C)C)cc1O
REMARK SMILES IDX 1 1 2 2 3 3 4 4 5 5 9 6 10 7 11 8 6 10 7 11 8 12
REMARK H PARENT 11 9
ROOT
ATOM      1  C   UNL     1     -22.838  13.127 -29.729  1.00  0.00     0.048 C 
ATOM      2  C   UNL     1     -22.090  13.604 -28.518  1.00  0.00    -0.009 A 
ATOM      3  C   UNL     1     -22.801  14.160 -27.446  1.00  0.00     0.007 A 
ATOM      4  C   UNL     1     -22.136  14.615 -26.302  1.00  0.00     0.004 A 
ATOM      5  C   UNL     1     -20.742  14.526 -26.199  1.00  0.00    -0.042 A 
ATOM      6  C   UNL     1     -20.032  13.970 -27.272  1.00  0.00     0.050 A 
ATOM      7  C   UNL     1     -20.699  13.517 -28.411  1.00  0.00     0.118 A 
ENDROOT
BRANCH   7   8
ATOM      8  O   UNL     1     -19.910  12.993 -29.397  1.00  0.00    -0.508 OA
ATOM      9  H   UNL     1     -20.425  12.926 -30.216  1.00  0.00     0.293 HD
ENDBRANCH   7   8
BRANCH   5  10
ATOM     10  C   UNL     1     -20.040  15.026 -24.950  1.00  0.00     0.013 C 
ATOM     11  C   UNL     1     -20.103  16.551 -24.843  1.00  0.00     0.012 C 
ATOM     12  C   UNL     1     -20.601  14.367 -23.688  1.00  0.00     0.012 C 
ENDBRANCH   5  10
TORSDOF 2
ENDMDL
MODEL 3
REMARK VINA RESULT:    -4.839      1.398      2.250
REMARK INTER + INTRA:          -5.389
REMARK INTER:                  -5.264
REMARK INTRA:                  -0.125
REMARK UNBOUND:                -0.126
REMARK SMILES Cc1ccc(C(C)C)cc1O
REMARK SMILES IDX 1 1 2 2 3 3 4 4 5 5 9 6 10 7 11 8 6 10 7 11 8 12
REMARK H PARENT 11 9
ROOT
ATOM      1  C   UNL     1     -21.853  15.828 -23.673  1.00  0.00     0.048 C 
ATOM      2  C   UNL     1     -21.781  15.292 -25.073  1.00  0.00    -0.009 A 
ATOM      3  C   UNL     1     -22.692  15.752 -26.035  1.00  0.00     0.007 A 
ATOM      4  C   UNL     1     -22.654  15.274 -27.349  1.00  0.00     0.004 A 
ATOM      5  C   UNL     1     -21.703  14.321 -27.737  1.00  0.00    -0.042 A 
ATOM      6  C   UNL     1     -20.793  13.861 -26.776  1.00  0.00     0.050 A 
ATOM      7  C   UNL     1     -20.834  14.341 -25.466  1.00  0.00     0.118 A 
ENDROOT
BRANCH   7   8
ATOM      8  O   UNL     1     -19.902  13.825 -24.610  1.00  0.00    -0.508 OA
ATOM      9  H   UNL     1     -20.341  13.237 -23.977  1.00  0.00     0.293 HD
ENDBRANCH   7   8
BRANCH   5  10
ATOM     10  C   UNL     1     -21.679  13.814 -29.167  1.00  0.00     0.013 C 
ATOM     11  C   UNL     1     -22.481  12.519 -29.319  1.00  0.00     0.012 C 
ATOM     12  C   UNL     1     -22.172  14.879 -30.151  1.00  0.00     0.012 C 
ENDBRANCH   5  10
TORSDOF 2
ENDMDL
MODEL 4
REMARK VINA RESULT:    -4.820      3.222      4.301
REMARK INTER + INTRA:          -5.368
REMARK INTER:                  -5.243
REMARK INTRA:                  -0.125
REMARK UNBOUND:                -0.126
REMARK SMILES Cc1ccc(C(C)C)cc1O
REMARK SMILES IDX 1 1 2 2 3 3 4 4 5 5 9 6 10 7 11 8 6 10 7 11 8 12
REMARK H PARENT 11 9
ROOT
ATOM      1  C   UNL     1     -19.518  13.739 -28.370  1.00  0.00     0.048 C 
ATOM      2  C   UNL     1     -20.580  14.492 -29.117  1.00  0.00    -0.009 A 
ATOM      3  C   UNL     1     -20.535  15.893 -29.154  1.00  0.00     0.007 A 
ATOM      4  C   UNL     1     -21.508  16.626 -29.841  1.00  0.00     0.004 A 
ATOM      5  C   UNL     1     -22.555  15.978 -30.509  1.00  0.00    -0.042 A 
ATOM      6  C   UNL     1     -22.601  14.578 -30.471  1.00  0.00     0.050 A 
ATOM      7  C   UNL     1     -21.627  13.850 -29.785  1.00  0.00     0.118 A 
ENDROOT
BRANCH   7   8
ATOM      8  O   UNL     1     -21.767  12.491 -29.812  1.00  0.00    -0.508 OA
ATOM      9  H   UNL     1     -20.892  12.078 -29.745  1.00  0.00     0.293 HD
ENDBRANCH   7   8
BRANCH   5  10
ATOM     10  C   UNL     1     -23.602  16.791 -31.247  1.00  0.00     0.013 C 
ATOM     11  C   UNL     1     -23.728  18.203 -30.669  1.00  0.00     0.012 C 
ATOM     12  C   UNL     1     -23.319  16.841 -32.750  1.00  0.00     0.012 C 
ENDBRANCH   5  10
TORSDOF 2
ENDMDL
MODEL 5
REMARK VINA RESULT:    -4.759      6.680      7.654
REMARK INTER + INTRA:          -5.302
REMARK INTER:                  -5.177
REMARK INTRA:                  -0.125
REMARK UNBOUND:                -0.126
REMARK SMILES Cc1ccc(C(C)C)cc1O
REMARK SMILES IDX 1 1 2 2 3 3 4 4 5 5 9 6 10 7 11 8 6 10 7 11 8 12
REMARK H PARENT 11 9
ROOT
ATOM      1  C   UNL     1     -17.670  23.821 -24.859  1.00  0.00     0.048 C 
ATOM      2  C   UNL     1     -18.025  22.502 -25.481  1.00  0.00    -0.009 A 
ATOM      3  C   UNL     1     -19.155  21.807 -25.026  1.00  0.00     0.007 A 
ATOM      4  C   UNL     1     -19.514  20.575 -25.583  1.00  0.00     0.004 A 
ATOM      5  C   UNL     1     -18.753  20.003 -26.610  1.00  0.00    -0.042 A 
ATOM      6  C   UNL     1     -17.623  20.697 -27.064  1.00  0.00     0.050 A 
ATOM      7  C   UNL     1     -17.268  21.926 -26.507  1.00  0.00     0.118 A 
ENDROOT
BRANCH   7   8
ATOM      8  O   UNL     1     -16.149  22.517 -27.023  1.00  0.00    -0.508 OA
ATOM      9  H   UNL     1     -16.402  23.327 -27.491  1.00  0.00     0.293 HD
ENDBRANCH   7   8
BRANCH   5  10
ATOM     10  C   UNL     1     -19.159  18.666 -27.200  1.00  0.00     0.013 C 
ATOM     11  C   UNL     1     -19.912  17.807 -26.180  1.00  0.00     0.012 C 
ATOM     12  C   UNL     1     -19.982  18.841 -28.479  1.00  0.00     0.012 C 
ENDBRANCH   5  10
TORSDOF 2
ENDMDL
MODEL 6
REMARK VINA RESULT:    -4.731      2.773      4.407
REMARK INTER + INTRA:          -5.271
REMARK INTER:                  -5.146
REMARK INTRA:                  -0.125
REMARK UNBOUND:                -0.126
REMARK SMILES Cc1ccc(C(C)C)cc1O
REMARK SMILES IDX 1 1 2 2 3 3 4 4 5 5 9 6 10 7 11 8 6 10 7 11 8 12
REMARK H PARENT 11 9
ROOT
ATOM      1  C   UNL     1     -22.173  14.180 -20.601  1.00  0.00     0.048 C 
ATOM      2  C   UNL     1     -21.647  14.577 -21.949  1.00  0.00    -0.009 A 
ATOM      3  C   UNL     1     -22.036  15.804 -22.507  1.00  0.00     0.007 A 
ATOM      4  C   UNL     1     -21.565  16.205 -23.761  1.00  0.00     0.004 A 
ATOM      5  C   UNL     1     -20.692  15.390 -24.494  1.00  0.00    -0.042 A 
ATOM      6  C   UNL     1     -20.304  14.165 -23.937  1.00  0.00     0.050 A 
ATOM      7  C   UNL     1     -20.776  13.768 -22.685  1.00  0.00     0.118 A 
ENDROOT
BRANCH   7   8
ATOM      8  O   UNL     1     -20.335  12.554 -22.237  1.00  0.00    -0.508 OA
ATOM      9  H   UNL     1     -20.869  12.282 -21.474  1.00  0.00     0.293 HD
ENDBRANCH   7   8
BRANCH   5  10
ATOM     10  C   UNL     1     -20.194  15.844 -25.853  1.00  0.00     0.013 C 
ATOM     11  C   UNL     1     -20.474  14.796 -26.933  1.00  0.00     0.012 C 
ATOM     12  C   UNL     1     -20.783  17.201 -26.245  1.00  0.00     0.012 C 
ENDBRANCH   5  10
TORSDOF 2
ENDMDL
MODEL 7
REMARK VINA RESULT:    -4.688      3.123      4.994
REMARK INTER + INTRA:          -5.224
REMARK INTER:                  -5.102
REMARK INTRA:                  -0.123
REMARK UNBOUND:                -0.126
REMARK SMILES Cc1ccc(C(C)C)cc1O
REMARK SMILES IDX 1 1 2 2 3 3 4 4 5 5 9 6 10 7 11 8 6 10 7 11 8 12
REMARK H PARENT 11 9
ROOT
ATOM      1  C   UNL     1     -22.383  18.785 -31.585  1.00  0.00     0.048 C 
ATOM      2  C   UNL     1     -22.153  17.431 -30.980  1.00  0.00    -0.009 A 
ATOM      3  C   UNL     1     -21.321  17.311 -29.858  1.00  0.00     0.007 A 
ATOM      4  C   UNL     1     -21.085  16.065 -29.268  1.00  0.00     0.004 A 
ATOM      5  C   UNL     1     -21.674  14.904 -29.785  1.00  0.00    -0.042 A 
ATOM      6  C   UNL     1     -22.504  15.024 -30.907  1.00  0.00     0.050 A 
ATOM      7  C   UNL     1     -22.738  16.269 -31.492  1.00  0.00     0.118 A 
ENDROOT
BRANCH   7   8
ATOM      8  O   UNL     1     -23.563  16.273 -32.581  1.00  0.00    -0.508 OA
ATOM      9  H   UNL     1     -23.641  15.370 -32.927  1.00  0.00     0.293 HD
ENDBRANCH   7   8
BRANCH   5  10
ATOM     10  C   UNL     1     -21.404  13.561 -29.131  1.00  0.00     0.013 C 
ATOM     11  C   UNL     1     -21.165  13.707 -27.626  1.00  0.00     0.012 C 
ATOM     12  C   UNL     1     -22.530  12.563 -29.410  1.00  0.00     0.012 C 
ENDBRANCH   5  10
TORSDOF 2
ENDMDL
MODEL 8
REMARK VINA RESULT:    -4.635      2.854      4.591
REMARK INTER + INTRA:          -5.167
REMARK INTER:                  -5.044
REMARK INTRA:                  -0.123
REMARK UNBOUND:                -0.126
REMARK SMILES Cc1ccc(C(C)C)cc1O
REMARK SMILES IDX 1 1 2 2 3 3 4 4 5 5 9 6 10 7 11 8 6 10 7 11 8 12
REMARK H PARENT 11 9
ROOT
ATOM      1  C   UNL     1     -22.518  12.324 -29.357  1.00  0.00     0.048 C 
ATOM      2  C   UNL     1     -21.916  13.699 -29.334  1.00  0.00    -0.009 A 
ATOM      3  C   UNL     1     -22.492  14.716 -30.108  1.00  0.00     0.007 A 
ATOM      4  C   UNL     1     -21.956  16.008 -30.111  1.00  0.00     0.004 A 
ATOM      5  C   UNL     1     -20.829  16.319 -29.339  1.00  0.00    -0.042 A 
ATOM      6  C   UNL     1     -20.253  15.302 -28.566  1.00  0.00     0.050 A 
ATOM      7  C   UNL     1     -20.791  14.014 -28.565  1.00  0.00     0.118 A 
ENDROOT
BRANCH   7   8
ATOM      8  O   UNL     1     -20.152  13.099 -27.777  1.00  0.00    -0.508 OA
ATOM      9  H   UNL     1     -19.276  13.440 -27.537  1.00  0.00     0.293 HD
ENDBRANCH   7   8
BRANCH   5  10
ATOM     10  C   UNL     1     -20.263  17.727 -29.357  1.00  0.00     0.013 C 
ATOM     11  C   UNL     1     -21.352  18.766 -29.634  1.00  0.00     0.012 C 
ATOM     12  C   UNL     1     -19.518  18.050 -28.059  1.00  0.00     0.012 C 
ENDBRANCH   5  10
TORSDOF 2
ENDMDL
