MODEL 1
REMARK VINA RESULT:    -7.261      0.000      0.000
REMARK INTER + INTRA:         -10.309
REMARK INTER:                  -9.383
REMARK INTRA:                  -0.926
REMARK UNBOUND:                -0.926
REMARK SMILES Cc1ccc(C(C)C)cc1OCc1cc(-c2ccccc2)no1
REMARK SMILES IDX 11 1 10 2 2 3 3 4 4 5 9 6 5 7 1 8 6 9 7 10 8 11 12 12 13 13
REMARK SMILES IDX 14 14 23 15 15 16 22 17 16 18 17 19 21 20 18 21 20 22 19 23
REMARK H PARENT
ROOT
ATOM      1  O   UNL     1     -22.698  16.394 -24.605  1.00  0.00    -0.485 OA
ENDROOT
BRANCH   1   2
ATOM      2  C   UNL     1     -22.142  15.554 -25.535  1.00  0.00     0.123 A 
ATOM      3  C   UNL     1     -20.928  14.952 -25.163  1.00  0.00    -0.009 A 
ATOM      4  C   UNL     1     -20.302  14.066 -26.050  1.00  0.00     0.007 A 
ATOM      5  C   UNL     1     -20.877  13.771 -27.286  1.00  0.00     0.004 A 
ATOM      6  C   UNL     1     -22.718  15.242 -26.772  1.00  0.00     0.050 A 
ATOM      7  C   UNL     1     -22.094  14.351 -27.662  1.00  0.00    -0.042 A 
ATOM      8  C   UNL     1     -20.294  15.250 -23.833  1.00  0.00     0.048 C 
BRANCH   7   9
ATOM      9  C   UNL     1     -22.714  14.002 -29.004  1.00  0.00     0.013 C 
ATOM     10  C   UNL     1     -22.166  14.892 -30.124  1.00  0.00     0.012 C 
ATOM     11  C   UNL     1     -22.528  12.522 -29.344  1.00  0.00     0.012 C 
ENDBRANCH   7   9
ENDBRANCH   1   2
BRANCH   1  12
ATOM     12  C   UNL     1     -23.023  17.729 -25.004  1.00  0.00     0.307 C 
BRANCH  12  13
ATOM     13  C   UNL     1     -21.798  18.558 -24.978  1.00  0.00     0.174 A 
ATOM     14  C   UNL     1     -21.118  19.319 -25.897  1.00  0.00     0.081 A 
ATOM     15  O   UNL     1     -21.142  18.615 -23.791  1.00  0.00    -0.357 OA
ATOM     16  C   UNL     1     -19.996  19.836 -25.196  1.00  0.00     0.114 A 
ATOM     17  N   UNL     1     -20.023  19.409 -23.921  1.00  0.00    -0.079 NA
BRANCH  16  18
ATOM     18  C   UNL     1     -18.927  20.706 -25.697  1.00  0.00     0.004 A 
ATOM     19  C   UNL     1     -18.740  21.991 -25.160  1.00  0.00     0.010 A 
ATOM     20  C   UNL     1     -18.064  20.282 -26.719  1.00  0.00     0.010 A 
ATOM     21  C   UNL     1     -17.724  22.827 -25.633  1.00  0.00     0.001 A 
ATOM     22  C   UNL     1     -17.048  21.118 -27.192  1.00  0.00     0.001 A 
ATOM     23  C   UNL     1     -16.879  22.390 -26.650  1.00  0.00     0.000 A 
ENDBRANCH  16  18
ENDBRANCH  12  13
ENDBRANCH   1  12
TORSDOF 5
ENDMDL
MODEL 2
REMARK VINA RESULT:    -7.222      2.519      4.015
REMARK INTER + INTRA:         -10.258
REMARK INTER:                  -9.673
REMARK INTRA:                  -0.585
REMARK UNBOUND:                -0.926
REMARK SMILES Cc1ccc(C(C)C)cc1OCc1cc(-c2ccccc2)no1
REMARK SMILES IDX 11 1 10 2 2 3 3 4 4 5 9 6 5 7 1 8 6 9 7 10 8 11 12 12 13 13
REMARK SMILES IDX 14 14 23 15 15 16 22 17 16 18 17 19 21 20 18 21 20 22 19 23
REMARK H PARENT
ROOT
ATOM      1  O   UNL     1     -20.267  18.401 -29.179  1.00  0.00    -0.485 OA
ENDROOT
BRANCH   1   2
ATOM      2  C   UNL     1     -20.962  17.302 -29.615  1.00  0.00     0.123 A 
ATOM      3  C   UNL     1     -21.944  17.549 -30.588  1.00  0.00    -0.009 A 
ATOM      4  C   UNL     1     -22.688  16.478 -31.101  1.00  0.00     0.007 A 
ATOM      5  C   UNL     1     -22.453  15.175 -30.661  1.00  0.00     0.004 A 
ATOM      6  C   UNL     1     -20.725  15.989 -29.189  1.00  0.00     0.050 A 
ATOM      7  C   UNL     1     -21.467  14.912 -29.703  1.00  0.00    -0.042 A 
ATOM      8  C   UNL     1     -22.208  18.945 -31.082  1.00  0.00     0.048 C 
BRANCH   7   9
ATOM      9  C   UNL     1     -21.215  13.484 -29.252  1.00  0.00     0.013 C 
ATOM     10  C   UNL     1     -20.544  13.441 -27.876  1.00  0.00     0.012 C 
ATOM     11  C   UNL     1     -22.500  12.654 -29.260  1.00  0.00     0.012 C 
ENDBRANCH   7   9
ENDBRANCH   1   2
BRANCH   1  12
ATOM     12  C   UNL     1     -19.111  18.192 -28.361  1.00  0.00     0.307 C 
BRANCH  12  13
ATOM     13  C   UNL     1     -19.134  19.149 -27.232  1.00  0.00     0.174 A 
ATOM     14  C   UNL     1     -19.207  20.515 -27.115  1.00  0.00     0.081 A 
ATOM     15  O   UNL     1     -19.065  18.606 -25.990  1.00  0.00    -0.357 OA
ATOM     16  C   UNL     1     -19.165  20.773 -25.719  1.00  0.00     0.114 A 
ATOM     17  N   UNL     1     -19.085  19.611 -25.047  1.00  0.00    -0.079 NA
BRANCH  16  18
ATOM     18  C   UNL     1     -19.200  22.066 -25.027  1.00  0.00     0.004 A 
ATOM     19  C   UNL     1     -18.201  23.027 -25.257  1.00  0.00     0.010 A 
ATOM     20  C   UNL     1     -20.228  22.378 -24.125  1.00  0.00     0.010 A 
ATOM     21  C   UNL     1     -18.227  24.261 -24.601  1.00  0.00     0.001 A 
ATOM     22  C   UNL     1     -20.253  23.613 -23.468  1.00  0.00     0.001 A 
ATOM     23  C   UNL     1     -19.253  24.553 -23.706  1.00  0.00     0.000 A 
ENDBRANCH  16  18
ENDBRANCH  12  13
ENDBRANCH   1  12
TORSDOF 5
ENDMDL
MODEL 3
REMARK VINA RESULT:    -7.133      0.629      1.396
REMARK INTER + INTRA:         -10.143
REMARK INTER:                  -9.195
REMARK INTRA:                  -0.948
REMARK UNBOUND:                -0.926
REMARK SMILES Cc1ccc(C(C)C)cc1OCc1cc(-c2ccccc2)no1
REMARK SMILES IDX 11 1 10 2 2 3 3 4 4 5 9 6 5 7 1 8 6 9 7 10 8 11 12 12 13 13
REMARK SMILES IDX 14 14 23 15 15 16 22 17 16 18 17 19 21 20 18 21 20 22 19 23
REMARK H PARENT
ROOT
ATOM      1  O   UNL     1     -23.211  16.621 -25.363  1.00  0.00    -0.485 OA
ENDROOT
BRANCH   1   2
ATOM      2  C   UNL     1     -22.389  15.713 -25.981  1.00  0.00     0.123 A 
ATOM      3  C   UNL     1     -21.362  15.180 -25.184  1.00  0.00    -0.009 A 
ATOM      4  C   UNL     1     -20.488  14.232 -25.734  1.00  0.00     0.007 A 
ATOM      5  C   UNL     1     -20.638  13.810 -27.055  1.00  0.00     0.004 A 
ATOM      6  C   UNL     1     -22.538  15.274 -27.301  1.00  0.00     0.050 A 
ATOM      7  C   UNL     1     -21.666  14.321 -27.855  1.00  0.00    -0.042 A 
ATOM      8  C   UNL     1     -21.188  15.615 -23.755  1.00  0.00     0.048 C 
BRANCH   7   9
ATOM      9  C   UNL     1     -21.823  13.833 -29.285  1.00  0.00     0.013 C 
ATOM     10  C   UNL     1     -22.541  12.481 -29.341  1.00  0.00     0.012 C 
ATOM     11  C   UNL     1     -22.535  14.867 -30.159  1.00  0.00     0.012 C 
ENDBRANCH   7   9
ENDBRANCH   1   2
BRANCH   1  12
ATOM     12  C   UNL     1     -23.389  17.902 -25.975  1.00  0.00     0.307 C 
BRANCH  12  13
ATOM     13  C   UNL     1     -22.188  18.730 -25.730  1.00  0.00     0.174 A 
ATOM     14  C   UNL     1     -21.234  19.321 -26.522  1.00  0.00     0.081 A 
ATOM     15  O   UNL     1     -21.907  19.003 -24.430  1.00  0.00    -0.357 OA
ATOM     16  C   UNL     1     -20.345  19.963 -25.620  1.00  0.00     0.114 A 
ATOM     17  N   UNL     1     -20.764  19.769 -24.356  1.00  0.00    -0.079 NA
BRANCH  16  18
ATOM     18  C   UNL     1     -19.137  20.737 -25.923  1.00  0.00     0.004 A 
ATOM     19  C   UNL     1     -18.156  20.221 -26.787  1.00  0.00     0.010 A 
ATOM     20  C   UNL     1     -18.929  22.007 -25.365  1.00  0.00     0.010 A 
ATOM     21  C   UNL     1     -17.001  20.953 -27.081  1.00  0.00     0.001 A 
ATOM     22  C   UNL     1     -17.774  22.739 -25.658  1.00  0.00     0.001 A 
ATOM     23  C   UNL     1     -16.810  22.211 -26.515  1.00  0.00     0.000 A 
ENDBRANCH  16  18
ENDBRANCH  12  13
ENDBRANCH   1  12
TORSDOF 5
ENDMDL
MODEL 4
REMARK VINA RESULT:    -7.057      3.022      4.656
REMARK INTER + INTRA:         -10.045
REMARK INTER:                  -9.400
REMARK INTRA:                  -0.645
REMARK UNBOUND:                -0.926
REMARK SMILES Cc1ccc(C(C)C)cc1OCc1cc(-c2ccccc2)no1
REMARK SMILES IDX 11 1 10 2 2 3 3 4 4 5 9 6 5 7 1 8 6 9 7 10 8 11 12 12 13 13
REMARK SMILES IDX 14 14 23 15 15 16 22 17 16 18 17 19 21 20 18 21 20 22 19 23
REMARK H PARENT
ROOT
ATOM      1  O   UNL     1     -21.496  16.500 -28.586  1.00  0.00    -0.485 OA
ENDROOT
BRANCH   1   2
ATOM      2  C   UNL     1     -21.802  17.002 -29.825  1.00  0.00     0.123 A 
ATOM      3  C   UNL     1     -22.478  16.123 -30.688  1.00  0.00    -0.009 A 
ATOM      4  C   UNL     1     -22.844  16.563 -31.967  1.00  0.00     0.007 A 
ATOM      5  C   UNL     1     -22.553  17.863 -32.382  1.00  0.00     0.004 A 
ATOM      6  C   UNL     1     -21.526  18.308 -30.245  1.00  0.00     0.050 A 
ATOM      7  C   UNL     1     -21.895  18.754 -31.526  1.00  0.00    -0.042 A 
ATOM      8  C   UNL     1     -22.808  14.720 -30.259  1.00  0.00     0.048 C 
BRANCH   7   9
ATOM      9  C   UNL     1     -21.604  20.171 -31.990  1.00  0.00     0.013 C 
ATOM     10  C   UNL     1     -21.631  21.160 -30.821  1.00  0.00     0.012 C 
ATOM     11  C   UNL     1     -20.278  20.256 -32.748  1.00  0.00     0.012 C 
ENDBRANCH   7   9
ENDBRANCH   1   2
BRANCH   1  12
ATOM     12  C   UNL     1     -20.116  16.334 -28.243  1.00  0.00     0.307 C 
BRANCH  12  13
ATOM     13  C   UNL     1     -19.674  17.488 -27.430  1.00  0.00     0.174 A 
ATOM     14  C   UNL     1     -19.156  18.730 -27.704  1.00  0.00     0.081 A 
ATOM     15  O   UNL     1     -19.777  17.344 -26.085  1.00  0.00    -0.357 OA
ATOM     16  C   UNL     1     -18.937  19.331 -26.436  1.00  0.00     0.114 A 
ATOM     17  N   UNL     1     -19.321  18.486 -25.462  1.00  0.00    -0.079 NA
BRANCH  16  18
ATOM     18  C   UNL     1     -18.387  20.657 -26.136  1.00  0.00     0.004 A 
ATOM     19  C   UNL     1     -19.119  21.577 -25.366  1.00  0.00     0.010 A 
ATOM     20  C   UNL     1     -17.121  21.041 -26.604  1.00  0.00     0.010 A 
ATOM     21  C   UNL     1     -18.601  22.843 -25.076  1.00  0.00     0.001 A 
ATOM     22  C   UNL     1     -16.604  22.308 -26.315  1.00  0.00     0.001 A 
ATOM     23  C   UNL     1     -17.345  23.208 -25.552  1.00  0.00     0.000 A 
ENDBRANCH  16  18
ENDBRANCH  12  13
ENDBRANCH   1  12
TORSDOF 5
ENDMDL
MODEL 5
REMARK VINA RESULT:    -7.048      2.285      3.511
REMARK INTER + INTRA:         -10.033
REMARK INTER:                  -9.442
REMARK INTRA:                  -0.592
REMARK UNBOUND:                -0.926
REMARK SMILES Cc1ccc(C(C)C)cc1OCc1cc(-c2ccccc2)no1
REMARK SMILES IDX 11 1 10 2 2 3 3 4 4 5 9 6 5 7 1 8 6 9 7 10 8 11 12 12 13 13
REMARK SMILES IDX 14 14 23 15 15 16 22 17 16 18 17 19 21 20 18 21 20 22 19 23
REMARK H PARENT
ROOT
ATOM      1  O   UNL     1     -19.968  16.542 -28.042  1.00  0.00    -0.485 OA
ENDROOT
BRANCH   1   2
ATOM      2  C   UNL     1     -20.892  15.961 -28.872  1.00  0.00     0.123 A 
ATOM      3  C   UNL     1     -21.279  14.654 -28.531  1.00  0.00    -0.009 A 
ATOM      4  C   UNL     1     -22.233  13.994 -29.317  1.00  0.00     0.007 A 
ATOM      5  C   UNL     1     -22.804  14.626 -30.422  1.00  0.00     0.004 A 
ATOM      6  C   UNL     1     -21.480  16.591 -29.975  1.00  0.00     0.050 A 
ATOM      7  C   UNL     1     -22.439  15.933 -30.764  1.00  0.00    -0.042 A 
ATOM      8  C   UNL     1     -20.682  13.957 -27.340  1.00  0.00     0.048 C 
BRANCH   7   9
ATOM      9  C   UNL     1     -23.087  16.610 -31.959  1.00  0.00     0.013 C 
ATOM     10  C   UNL     1     -24.613  16.487 -31.914  1.00  0.00     0.012 C 
ATOM     11  C   UNL     1     -22.660  18.074 -32.079  1.00  0.00     0.012 C 
ENDBRANCH   7   9
ENDBRANCH   1   2
BRANCH   1  12
ATOM     12  C   UNL     1     -19.284  17.712 -28.501  1.00  0.00     0.307 C 
BRANCH  12  13
ATOM     13  C   UNL     1     -19.218  18.701 -27.403  1.00  0.00     0.174 A 
ATOM     14  C   UNL     1     -19.194  20.072 -27.328  1.00  0.00     0.081 A 
ATOM     15  O   UNL     1     -19.161  18.194 -26.146  1.00  0.00    -0.357 OA
ATOM     16  C   UNL     1     -19.107  20.369 -25.942  1.00  0.00     0.114 A 
ATOM     17  N   UNL     1     -19.092  19.225 -25.235  1.00  0.00    -0.079 NA
BRANCH  16  18
ATOM     18  C   UNL     1     -19.039  21.681 -25.291  1.00  0.00     0.004 A 
ATOM     19  C   UNL     1     -20.046  22.089 -24.399  1.00  0.00     0.010 A 
ATOM     20  C   UNL     1     -17.973  22.560 -25.536  1.00  0.00     0.010 A 
ATOM     21  C   UNL     1     -19.989  23.339 -23.776  1.00  0.00     0.001 A 
ATOM     22  C   UNL     1     -17.917  23.810 -24.912  1.00  0.00     0.001 A 
ATOM     23  C   UNL     1     -18.926  24.199 -24.033  1.00  0.00     0.000 A 
ENDBRANCH  16  18
ENDBRANCH  12  13
ENDBRANCH   1  12
TORSDOF 5
ENDMDL
MODEL 6
REMARK VINA RESULT:    -7.032      2.881      4.224
REMARK INTER + INTRA:         -10.014
REMARK INTER:                  -9.402
REMARK INTRA:                  -0.612
REMARK UNBOUND:                -0.926
REMARK SMILES Cc1ccc(C(C)C)cc1OCc1cc(-c2ccccc2)no1
REMARK SMILES IDX 11 1 10 2 2 3 3 4 4 5 9 6 5 7 1 8 6 9 7 10 8 11 12 12 13 13
REMARK SMILES IDX 14 14 23 15 15 16 22 17 16 18 17 19 21 20 18 21 20 22 19 23
REMARK H PARENT
ROOT
ATOM      1  O   UNL     1     -21.729  18.119 -30.217  1.00  0.00    -0.485 OA
ENDROOT
BRANCH   1   2
ATOM      2  C   UNL     1     -21.813  16.760 -30.053  1.00  0.00     0.123 A 
ATOM      3  C   UNL     1     -22.774  16.110 -30.845  1.00  0.00    -0.009 A 
ATOM      4  C   UNL     1     -22.914  14.718 -30.752  1.00  0.00     0.007 A 
ATOM      5  C   UNL     1     -22.102  13.979 -29.891  1.00  0.00     0.004 A 
ATOM      6  C   UNL     1     -20.995  16.008 -29.202  1.00  0.00     0.050 A 
ATOM      7  C   UNL     1     -21.130  14.612 -29.108  1.00  0.00    -0.042 A 
ATOM      8  C   UNL     1     -23.654  16.886 -31.785  1.00  0.00     0.048 C 
BRANCH   7   9
ATOM      9  C   UNL     1     -20.243  13.787 -28.192  1.00  0.00     0.013 C 
ATOM     10  C   UNL     1     -18.771  13.874 -28.607  1.00  0.00     0.012 C 
ATOM     11  C   UNL     1     -20.421  14.185 -26.725  1.00  0.00     0.012 C 
ENDBRANCH   7   9
ENDBRANCH   1   2
BRANCH   1  12
ATOM     12  C   UNL     1     -22.224  18.961 -29.172  1.00  0.00     0.307 C 
BRANCH  12  13
ATOM     13  C   UNL     1     -21.161  19.902 -28.759  1.00  0.00     0.174 A 
ATOM     14  C   UNL     1     -20.321  20.009 -27.678  1.00  0.00     0.081 A 
ATOM     15  O   UNL     1     -20.912  20.931 -29.609  1.00  0.00    -0.357 OA
ATOM     16  C   UNL     1     -19.550  21.178 -27.917  1.00  0.00     0.114 A 
ATOM     17  N   UNL     1     -19.912  21.726 -29.091  1.00  0.00    -0.079 NA
BRANCH  16  18
ATOM     18  C   UNL     1     -18.504  21.770 -27.077  1.00  0.00     0.004 A 
ATOM     19  C   UNL     1     -17.147  21.507 -27.334  1.00  0.00     0.010 A 
ATOM     20  C   UNL     1     -18.825  22.613 -26.002  1.00  0.00     0.010 A 
ATOM     21  C   UNL     1     -16.145  22.068 -26.538  1.00  0.00     0.001 A 
ATOM     22  C   UNL     1     -17.822  23.173 -25.206  1.00  0.00     0.001 A 
ATOM     23  C   UNL     1     -16.482  22.899 -25.473  1.00  0.00     0.000 A 
ENDBRANCH  16  18
ENDBRANCH  12  13
ENDBRANCH   1  12
TORSDOF 5
ENDMDL
MODEL 7
REMARK VINA RESULT:    -7.026      3.928      6.247
REMARK INTER + INTRA:         -10.005
REMARK INTER:                  -9.186
REMARK INTRA:                  -0.819
REMARK UNBOUND:                -0.926
REMARK SMILES Cc1ccc(C(C)C)cc1OCc1cc(-c2ccccc2)no1
REMARK SMILES IDX 11 1 10 2 2 3 3 4 4 5 9 6 5 7 1 8 6 9 7 10 8 11 12 12 13 13
REMARK SMILES IDX 14 14 23 15 15 16 22 17 16 18 17 19 21 20 18 21 20 22 19 23
REMARK H PARENT
ROOT
ATOM      1  O   UNL     1     -21.355  14.587 -29.742  1.00  0.00    -0.485 OA
ENDROOT
BRANCH   1   2
ATOM      2  C   UNL     1     -21.752  15.831 -30.163  1.00  0.00     0.123 A 
ATOM      3  C   UNL     1     -20.985  16.908 -29.688  1.00  0.00    -0.009 A 
ATOM      4  C   UNL     1     -21.312  18.211 -30.085  1.00  0.00     0.007 A 
ATOM      5  C   UNL     1     -22.381  18.443 -30.952  1.00  0.00     0.004 A 
ATOM      6  C   UNL     1     -22.814  16.072 -31.042  1.00  0.00     0.050 A 
ATOM      7  C   UNL     1     -23.143  17.378 -31.445  1.00  0.00    -0.042 A 
ATOM      8  C   UNL     1     -19.825  16.679 -28.760  1.00  0.00     0.048 C 
BRANCH   7   9
ATOM      9  C   UNL     1     -24.290  17.651 -32.402  1.00  0.00     0.013 C 
ATOM     10  C   UNL     1     -25.454  16.681 -32.174  1.00  0.00     0.012 C 
ATOM     11  C   UNL     1     -24.764  19.103 -32.317  1.00  0.00     0.012 C 
ENDBRANCH   7   9
ENDBRANCH   1   2
BRANCH   1  12
ATOM     12  C   UNL     1     -22.221  13.860 -28.864  1.00  0.00     0.307 C 
BRANCH  12  13
ATOM     13  C   UNL     1     -21.843  14.143 -27.462  1.00  0.00     0.174 A 
ATOM     14  C   UNL     1     -22.453  14.753 -26.394  1.00  0.00     0.081 A 
ATOM     15  O   UNL     1     -20.607  13.729 -27.082  1.00  0.00    -0.357 OA
ATOM     16  C   UNL     1     -21.504  14.695 -25.338  1.00  0.00     0.114 A 
ATOM     17  N   UNL     1     -20.392  14.068 -25.764  1.00  0.00    -0.079 NA
BRANCH  16  18
ATOM     18  C   UNL     1     -21.627  15.207 -23.970  1.00  0.00     0.004 A 
ATOM     19  C   UNL     1     -21.170  14.448 -22.879  1.00  0.00     0.010 A 
ATOM     20  C   UNL     1     -22.198  16.463 -23.713  1.00  0.00     0.010 A 
ATOM     21  C   UNL     1     -21.284  14.929 -21.572  1.00  0.00     0.001 A 
ATOM     22  C   UNL     1     -22.313  16.943 -22.404  1.00  0.00     0.001 A 
ATOM     23  C   UNL     1     -21.857  16.176 -21.335  1.00  0.00     0.000 A 
ENDBRANCH  16  18
ENDBRANCH  12  13
ENDBRANCH   1  12
TORSDOF 5
ENDMDL
MODEL 8
REMARK VINA RESULT:    -7.002      3.089      5.659
REMARK INTER + INTRA:          -9.975
REMARK INTER:                  -9.044
REMARK INTRA:                  -0.931
REMARK UNBOUND:                -0.926
REMARK SMILES Cc1ccc(C(C)C)cc1OCc1cc(-c2ccccc2)no1
REMARK SMILES IDX 11 1 10 2 2 3 3 4 4 5 9 6 5 7 1 8 6 9 7 10 8 11 12 12 13 13
REMARK SMILES IDX 14 14 23 15 15 16 22 17 16 18 17 19 21 20 18 21 20 22 19 23
REMARK H PARENT
ROOT
ATOM      1  O   UNL     1     -19.525  16.539 -28.788  1.00  0.00    -0.485 OA
ENDROOT
BRANCH   1   2
ATOM      2  C   UNL     1     -20.652  16.040 -29.388  1.00  0.00     0.123 A 
ATOM      3  C   UNL     1     -20.854  14.657 -29.249  1.00  0.00    -0.009 A 
ATOM      4  C   UNL     1     -21.993  14.069 -29.818  1.00  0.00     0.007 A 
ATOM      5  C   UNL     1     -22.925  14.846 -30.507  1.00  0.00     0.004 A 
ATOM      6  C   UNL     1     -21.599  16.813 -30.070  1.00  0.00     0.050 A 
ATOM      7  C   UNL     1     -22.743  16.227 -30.639  1.00  0.00    -0.042 A 
ATOM      8  C   UNL     1     -19.867  13.803 -28.504  1.00  0.00     0.048 C 
BRANCH   7   9
ATOM      9  C   UNL     1     -23.780  17.057 -31.377  1.00  0.00     0.013 C 
ATOM     10  C   UNL     1     -23.708  18.532 -30.973  1.00  0.00     0.012 C 
ATOM     11  C   UNL     1     -23.654  16.899 -32.893  1.00  0.00     0.012 C 
ENDBRANCH   7   9
ENDBRANCH   1   2
BRANCH   1  12
ATOM     12  C   UNL     1     -19.664  17.655 -27.903  1.00  0.00     0.307 C 
BRANCH  12  13
ATOM     13  C   UNL     1     -20.327  17.210 -26.657  1.00  0.00     0.174 A 
ATOM     14  C   UNL     1     -20.031  16.306 -25.667  1.00  0.00     0.081 A 
ATOM     15  O   UNL     1     -21.518  17.795 -26.374  1.00  0.00    -0.357 OA
ATOM     16  C   UNL     1     -21.126  16.369 -24.764  1.00  0.00     0.114 A 
ATOM     17  N   UNL     1     -22.018  17.277 -25.199  1.00  0.00    -0.079 NA
BRANCH  16  18
ATOM     18  C   UNL     1     -21.338  15.606 -23.530  1.00  0.00     0.004 A 
ATOM     19  C   UNL     1     -22.186  16.097 -22.523  1.00  0.00     0.010 A 
ATOM     20  C   UNL     1     -20.705  14.371 -23.322  1.00  0.00     0.010 A 
ATOM     21  C   UNL     1     -22.392  15.376 -21.343  1.00  0.00     0.001 A 
ATOM     22  C   UNL     1     -20.912  13.650 -22.141  1.00  0.00     0.001 A 
ATOM     23  C   UNL     1     -21.754  14.154 -21.152  1.00  0.00     0.000 A 
ENDBRANCH  16  18
ENDBRANCH  12  13
ENDBRANCH   1  12
TORSDOF 5
ENDMDL
