MODEL 1
REMARK VINA RESULT:    -5.083      0.000      0.000
REMARK INTER + INTRA:          -6.676
REMARK INTER:                  -6.123
REMARK INTRA:                  -0.553
REMARK UNBOUND:                -0.553
REMARK SMILES CC(=O)Oc1ccccc1C(=O)O
REMARK SMILES IDX 5 1 6 2 7 3 8 4 9 5 10 6 4 7 2 8 3 9 1 10 11 11 12 12 13 13
REMARK H PARENT 13 14
ROOT
ATOM      1  C   UNL     1     -21.217  15.429 -29.623  1.00  0.00     0.145 A 
ATOM      2  C   UNL     1     -20.618  14.664 -28.617  1.00  0.00     0.048 A 
ATOM      3  C   UNL     1     -21.144  13.415 -28.293  1.00  0.00     0.004 A 
ATOM      4  C   UNL     1     -22.271  12.940 -28.963  1.00  0.00     0.001 A 
ATOM      5  C   UNL     1     -22.880  13.715 -29.956  1.00  0.00     0.019 A 
ATOM      6  C   UNL     1     -22.363  14.976 -30.294  1.00  0.00     0.102 A 
ENDROOT
BRANCH   1   7
ATOM      7  O   UNL     1     -20.657  16.684 -29.878  1.00  0.00    -0.426 OA
BRANCH   7   8
ATOM      8  C   UNL     1     -20.848  17.577 -28.830  1.00  0.00     0.308 C 
ATOM      9  O   UNL     1     -21.919  17.919 -28.346  1.00  0.00    -0.252 OA
ATOM     10  C   UNL     1     -19.512  18.093 -28.383  1.00  0.00     0.139 C 
ENDBRANCH   7   8
ENDBRANCH   1   7
BRANCH   6  11
ATOM     11  C   UNL     1     -23.021  15.818 -31.327  1.00  0.00     0.339 C 
ATOM     12  O   UNL     1     -24.184  16.174 -31.353  1.00  0.00    -0.246 OA
BRANCH  11  13
ATOM     13  O   UNL     1     -22.175  16.183 -32.311  1.00  0.00    -0.478 OA
ATOM     14  H   UNL     1     -22.765  16.559 -32.997  1.00  0.00     0.297 HD
ENDBRANCH  11  13
ENDBRANCH   6  11
TORSDOF 4
ENDMDL
MODEL 2
REMARK VINA RESULT:    -5.069      6.665      8.091
REMARK INTER + INTRA:          -6.660
REMARK INTER:                  -6.004
REMARK INTRA:                  -0.656
REMARK UNBOUND:                -0.553
REMARK SMILES CC(=O)Oc1ccccc1C(=O)O
REMARK SMILES IDX 5 1 6 2 7 3 8 4 9 5 10 6 4 7 2 8 3 9 1 10 11 11 12 12 13 13
REMARK H PARENT 13 14
ROOT
ATOM      1  C   UNL     1     -21.364  15.328 -22.696  1.00  0.00     0.145 A 
ATOM      2  C   UNL     1     -22.212  16.235 -23.340  1.00  0.00     0.048 A 
ATOM      3  C   UNL     1     -22.264  16.263 -24.732  1.00  0.00     0.004 A 
ATOM      4  C   UNL     1     -21.463  15.397 -25.476  1.00  0.00     0.001 A 
ATOM      5  C   UNL     1     -20.602  14.503 -24.829  1.00  0.00     0.019 A 
ATOM      6  C   UNL     1     -20.537  14.463 -23.428  1.00  0.00     0.102 A 
ENDROOT
BRANCH   1   7
ATOM      7  O   UNL     1     -21.338  15.372 -21.300  1.00  0.00    -0.426 OA
BRANCH   7   8
ATOM      8  C   UNL     1     -22.396  14.676 -20.723  1.00  0.00     0.308 C 
ATOM      9  O   UNL     1     -22.649  13.487 -20.860  1.00  0.00    -0.252 OA
ATOM     10  C   UNL     1     -23.217  15.631 -19.908  1.00  0.00     0.139 C 
ENDBRANCH   7   8
ENDBRANCH   1   7
BRANCH   6  11
ATOM     11  C   UNL     1     -19.603  13.537 -22.735  1.00  0.00     0.339 C 
ATOM     12  O   UNL     1     -18.401  13.669 -22.602  1.00  0.00    -0.246 OA
BRANCH  11  13
ATOM     13  O   UNL     1     -20.229  12.456 -22.228  1.00  0.00    -0.478 OA
ATOM     14  H   UNL     1     -19.560  12.056 -21.635  1.00  0.00     0.297 HD
ENDBRANCH  11  13
ENDBRANCH   6  11
TORSDOF 4
ENDMDL
MODEL 3
REMARK VINA RESULT:    -5.046      5.647      8.957
REMARK INTER + INTRA:          -6.632
REMARK INTER:                  -5.932
REMARK INTRA:                  -0.700
REMARK UNBOUND:                -0.553
REMARK SMILES CC(=O)Oc1ccccc1C(=O)O
REMARK SMILES IDX 5 1 6 2 7 3 8 4 9 5 10 6 4 7 2 8 3 9 1 10 11 11 12 12 13 13
REMARK H PARENT 13 14
ROOT
ATOM      1  C   UNL     1     -18.682  21.419 -25.372  1.00  0.00     0.145 A 
ATOM      2  C   UNL     1     -19.899  21.397 -24.681  1.00  0.00     0.048 A 
ATOM      3  C   UNL     1     -20.343  22.546 -24.029  1.00  0.00     0.004 A 
ATOM      4  C   UNL     1     -19.568  23.706 -24.058  1.00  0.00     0.001 A 
ATOM      5  C   UNL     1     -18.344  23.719 -24.734  1.00  0.00     0.019 A 
ATOM      6  C   UNL     1     -17.882  22.571 -25.395  1.00  0.00     0.102 A 
ENDROOT
BRANCH   1   7
ATOM      7  O   UNL     1     -18.282  20.226 -25.979  1.00  0.00    -0.426 OA
BRANCH   7   8
ATOM      8  C   UNL     1     -18.971  19.969 -27.159  1.00  0.00     0.308 C 
ATOM      9  O   UNL     1     -19.197  20.763 -28.062  1.00  0.00    -0.252 OA
ATOM     10  C   UNL     1     -19.432  18.541 -27.150  1.00  0.00     0.139 C 
ENDBRANCH   7   8
ENDBRANCH   1   7
BRANCH   6  11
ATOM     11  C   UNL     1     -16.568  22.568 -26.091  1.00  0.00     0.339 C 
ATOM     12  O   UNL     1     -15.465  22.598 -25.578  1.00  0.00    -0.246 OA
BRANCH  11  13
ATOM     13  O   UNL     1     -16.694  22.532 -27.432  1.00  0.00    -0.478 OA
ATOM     14  H   UNL     1     -15.974  23.115 -27.750  1.00  0.00     0.297 HD
ENDBRANCH  11  13
ENDBRANCH   6  11
TORSDOF 4
ENDMDL
MODEL 4
REMARK VINA RESULT:    -4.998      7.786      9.403
REMARK INTER + INTRA:          -6.574
REMARK INTER:                  -6.073
REMARK INTRA:                  -0.501
REMARK UNBOUND:                -0.553
REMARK SMILES CC(=O)Oc1ccccc1C(=O)O
REMARK SMILES IDX 5 1 6 2 7 3 8 4 9 5 10 6 4 7 2 8 3 9 1 10 11 11 12 12 13 13
REMARK H PARENT 13 14
ROOT
ATOM      1  C   UNL     1     -18.882  22.159 -25.504  1.00  0.00     0.145 A 
ATOM      2  C   UNL     1     -19.320  20.830 -25.501  1.00  0.00     0.048 A 
ATOM      3  C   UNL     1     -20.129  20.371 -24.464  1.00  0.00     0.004 A 
ATOM      4  C   UNL     1     -20.488  21.234 -23.428  1.00  0.00     0.001 A 
ATOM      5  C   UNL     1     -20.034  22.557 -23.424  1.00  0.00     0.019 A 
ATOM      6  C   UNL     1     -19.218  23.035 -24.461  1.00  0.00     0.102 A 
ENDROOT
BRANCH   1   7
ATOM      7  O   UNL     1     -18.051  22.546 -26.558  1.00  0.00    -0.426 OA
BRANCH   7   8
ATOM      8  C   UNL     1     -16.764  22.032 -26.440  1.00  0.00     0.308 C 
ATOM      9  O   UNL     1     -15.868  22.462 -25.726  1.00  0.00    -0.252 OA
ATOM     10  C   UNL     1     -16.625  20.856 -27.360  1.00  0.00     0.139 C 
ENDBRANCH   7   8
ENDBRANCH   1   7
BRANCH   6  11
ATOM     11  C   UNL     1     -18.707  24.431 -24.448  1.00  0.00     0.339 C 
ATOM     12  O   UNL     1     -19.354  25.451 -24.593  1.00  0.00    -0.246 OA
BRANCH  11  13
ATOM     13  O   UNL     1     -17.375  24.492 -24.254  1.00  0.00    -0.478 OA
ATOM     14  H   UNL     1     -17.044  23.661 -24.652  1.00  0.00     0.297 HD
ENDBRANCH  11  13
ENDBRANCH   6  11
TORSDOF 4
ENDMDL
MODEL 5
REMARK VINA RESULT:    -4.961      2.918      3.843
REMARK INTER + INTRA:          -6.529
REMARK INTER:                  -5.861
REMARK INTRA:                  -0.668
REMARK UNBOUND:                -0.553
REMARK SMILES CC(=O)Oc1ccccc1C(=O)O
REMARK SMILES IDX 5 1 6 2 7 3 8 4 9 5 10 6 4 7 2 8 3 9 1 10 11 11 12 12 13 13
REMARK H PARENT 13 14
ROOT
ATOM      1  C   UNL     1     -20.760  14.936 -27.896  1.00  0.00     0.145 A 
ATOM      2  C   UNL     1     -20.151  16.195 -27.926  1.00  0.00     0.048 A 
ATOM      3  C   UNL     1     -20.414  17.064 -28.983  1.00  0.00     0.004 A 
ATOM      4  C   UNL     1     -21.271  16.671 -30.011  1.00  0.00     0.001 A 
ATOM      5  C   UNL     1     -21.864  15.404 -29.988  1.00  0.00     0.019 A 
ATOM      6  C   UNL     1     -21.610  14.517 -28.931  1.00  0.00     0.102 A 
ENDROOT
BRANCH   1   7
ATOM      7  O   UNL     1     -20.432  14.103 -26.824  1.00  0.00    -0.426 OA
BRANCH   7   8
ATOM      8  C   UNL     1     -21.029  14.503 -25.633  1.00  0.00     0.308 C 
ATOM      9  O   UNL     1     -22.183  14.884 -25.486  1.00  0.00    -0.252 OA
ATOM     10  C   UNL     1     -20.016  14.421 -24.530  1.00  0.00     0.139 C 
ENDBRANCH   7   8
ENDBRANCH   1   7
BRANCH   6  11
ATOM     11  C   UNL     1     -22.213  13.158 -28.914  1.00  0.00     0.339 C 
ATOM     12  O   UNL     1     -22.090  12.289 -29.757  1.00  0.00    -0.246 OA
BRANCH  11  13
ATOM     13  O   UNL     1     -22.966  12.941 -27.818  1.00  0.00    -0.478 OA
ATOM     14  H   UNL     1     -22.721  13.675 -27.218  1.00  0.00     0.297 HD
ENDBRANCH  11  13
ENDBRANCH   6  11
TORSDOF 4
ENDMDL
MODEL 6
REMARK VINA RESULT:    -4.866      3.076      5.258
REMARK INTER + INTRA:          -6.415
REMARK INTER:                  -5.997
REMARK INTRA:                  -0.418
REMARK UNBOUND:                -0.553
REMARK SMILES CC(=O)Oc1ccccc1C(=O)O
REMARK SMILES IDX 5 1 6 2 7 3 8 4 9 5 10 6 4 7 2 8 3 9 1 10 11 11 12 12 13 13
REMARK H PARENT 13 14
ROOT
ATOM      1  C   UNL     1     -20.287  14.983 -27.489  1.00  0.00     0.145 A 
ATOM      2  C   UNL     1     -19.887  15.677 -28.637  1.00  0.00     0.048 A 
ATOM      3  C   UNL     1     -19.654  17.049 -28.567  1.00  0.00     0.004 A 
ATOM      4  C   UNL     1     -19.833  17.725 -27.360  1.00  0.00     0.001 A 
ATOM      5  C   UNL     1     -20.251  17.032 -26.219  1.00  0.00     0.019 A 
ATOM      6  C   UNL     1     -20.490  15.650 -26.272  1.00  0.00     0.102 A 
ENDROOT
BRANCH   1   7
ATOM      7  O   UNL     1     -20.531  13.615 -27.635  1.00  0.00    -0.426 OA
BRANCH   7   8
ATOM      8  C   UNL     1     -21.801  13.349 -28.136  1.00  0.00     0.308 C 
ATOM      9  O   UNL     1     -22.860  13.440 -27.530  1.00  0.00    -0.252 OA
ATOM     10  C   UNL     1     -21.675  12.898 -29.561  1.00  0.00     0.139 C 
ENDBRANCH   7   8
ENDBRANCH   1   7
BRANCH   6  11
ATOM     11  C   UNL     1     -20.963  14.912 -25.072  1.00  0.00     0.339 C 
ATOM     12  O   UNL     1     -21.892  15.209 -24.345  1.00  0.00    -0.246 OA
BRANCH  11  13
ATOM     13  O   UNL     1     -20.232  13.807 -24.824  1.00  0.00    -0.478 OA
ATOM     14  H   UNL     1     -20.575  13.489 -23.963  1.00  0.00     0.297 HD
ENDBRANCH  11  13
ENDBRANCH   6  11
TORSDOF 4
ENDMDL
MODEL 7
REMARK VINA RESULT:    -4.811      1.986      3.182
REMARK INTER + INTRA:          -6.349
REMARK INTER:                  -5.805
REMARK INTRA:                  -0.544
REMARK UNBOUND:                -0.553
REMARK SMILES CC(=O)Oc1ccccc1C(=O)O
REMARK SMILES IDX 5 1 6 2 7 3 8 4 9 5 10 6 4 7 2 8 3 9 1 10 11 11 12 12 13 13
REMARK H PARENT 13 14
ROOT
ATOM      1  C   UNL     1     -20.895  14.704 -28.068  1.00  0.00     0.145 A 
ATOM      2  C   UNL     1     -21.612  13.506 -27.985  1.00  0.00     0.048 A 
ATOM      3  C   UNL     1     -22.523  13.176 -28.986  1.00  0.00     0.004 A 
ATOM      4  C   UNL     1     -22.726  14.046 -30.057  1.00  0.00     0.001 A 
ATOM      5  C   UNL     1     -22.022  15.253 -30.128  1.00  0.00     0.019 A 
ATOM      6  C   UNL     1     -21.100  15.600 -29.128  1.00  0.00     0.102 A 
ENDROOT
BRANCH   1   7
ATOM      7  O   UNL     1     -20.018  14.988 -27.018  1.00  0.00    -0.426 OA
BRANCH   7   8
ATOM      8  C   UNL     1     -20.681  15.377 -25.859  1.00  0.00     0.308 C 
ATOM      9  O   UNL     1     -21.447  16.324 -25.738  1.00  0.00    -0.252 OA
ATOM     10  C   UNL     1     -20.289  14.455 -24.743  1.00  0.00     0.139 C 
ENDBRANCH   7   8
ENDBRANCH   1   7
BRANCH   6  11
ATOM     11  C   UNL     1     -20.369  16.894 -29.181  1.00  0.00     0.339 C 
ATOM     12  O   UNL     1     -20.836  17.993 -29.414  1.00  0.00    -0.246 OA
BRANCH  11  13
ATOM     13  O   UNL     1     -19.051  16.752 -28.939  1.00  0.00    -0.478 OA
ATOM     14  H   UNL     1     -18.630  16.992 -29.791  1.00  0.00     0.297 HD
ENDBRANCH  11  13
ENDBRANCH   6  11
TORSDOF 4
ENDMDL
MODEL 8
REMARK VINA RESULT:    -4.747      2.491      4.501
REMARK INTER + INTRA:          -6.272
REMARK INTER:                  -5.565
REMARK INTRA:                  -0.707
REMARK UNBOUND:                -0.553
REMARK SMILES CC(=O)Oc1ccccc1C(=O)O
REMARK SMILES IDX 5 1 6 2 7 3 8 4 9 5 10 6 4 7 2 8 3 9 1 10 11 11 12 12 13 13
REMARK H PARENT 13 14
ROOT
ATOM      1  C   UNL     1     -21.294  15.335 -27.253  1.00  0.00     0.145 A 
ATOM      2  C   UNL     1     -21.781  14.553 -26.201  1.00  0.00     0.048 A 
ATOM      3  C   UNL     1     -21.446  14.876 -24.887  1.00  0.00     0.004 A 
ATOM      4  C   UNL     1     -20.617  15.968 -24.629  1.00  0.00     0.001 A 
ATOM      5  C   UNL     1     -20.116  16.737 -25.685  1.00  0.00     0.019 A 
ATOM      6  C   UNL     1     -20.444  16.425 -27.013  1.00  0.00     0.102 A 
ENDROOT
BRANCH   1   7
ATOM      7  O   UNL     1     -21.644  14.940 -28.546  1.00  0.00    -0.426 OA
BRANCH   7   8
ATOM      8  C   UNL     1     -21.060  13.732 -28.913  1.00  0.00     0.308 C 
ATOM      9  O   UNL     1     -19.863  13.482 -28.955  1.00  0.00    -0.252 OA
ATOM     10  C   UNL     1     -22.142  12.762 -29.283  1.00  0.00     0.139 C 
ENDBRANCH   7   8
ENDBRANCH   1   7
BRANCH   6  11
ATOM     11  C   UNL     1     -19.892  17.220 -28.142  1.00  0.00     0.339 C 
ATOM     12  O   UNL     1     -20.139  18.381 -28.413  1.00  0.00    -0.246 OA
BRANCH  11  13
ATOM     13  O   UNL     1     -19.037  16.510 -28.904  1.00  0.00    -0.478 OA
ATOM     14  H   UNL     1     -18.198  17.012 -28.842  1.00  0.00     0.297 HD
ENDBRANCH  11  13
ENDBRANCH   6  11
TORSDOF 4
ENDMDL
