MODEL 1
REMARK VINA RESULT:    -4.955      0.000      0.000
REMARK INTER + INTRA:          -5.515
REMARK INTER:                  -5.390
REMARK INTRA:                  -0.125
REMARK UNBOUND:                -0.125
REMARK SMILES Cc1ccc(C(C)C)cc1O
REMARK SMILES IDX 1 1 2 2 3 3 4 4 5 5 9 6 10 7 11 8 6 10 7 11 8 12
REMARK H PARENT 11 9
ROOT
ATOM      1  C   UNL     1     -20.181  15.240 -23.990  1.00  0.00     0.048 C 
ATOM      2  C   UNL     1     -20.872  14.886 -25.275  1.00  0.00    -0.009 A 
ATOM      3  C   UNL     1     -20.220  14.060 -26.201  1.00  0.00     0.007 A 
ATOM      4  C   UNL     1     -20.834  13.710 -27.409  1.00  0.00     0.004 A 
ATOM      5  C   UNL     1     -22.116  14.177 -27.723  1.00  0.00    -0.042 A 
ATOM      6  C   UNL     1     -22.767  15.003 -26.796  1.00  0.00     0.050 A 
ATOM      7  C   UNL     1     -22.152  15.350 -25.593  1.00  0.00     0.118 A 
ENDROOT
BRANCH   7   8
ATOM      8  O   UNL     1     -22.875  16.160 -24.763  1.00  0.00    -0.508 OA
ATOM      9  H   UNL     1     -23.675  16.456 -25.223  1.00  0.00     0.293 HD
ENDBRANCH   7   8
BRANCH   5  10
ATOM     10  C   UNL     1     -22.764  13.787 -29.038  1.00  0.00     0.013 C 
ATOM     11  C   UNL     1     -22.384  14.754 -30.161  1.00  0.00     0.012 C 
ATOM     12  C   UNL     1     -22.429  12.344 -29.424  1.00  0.00     0.012 C 
ENDBRANCH   5  10
TORSDOF 2
ENDMDL
MODEL 2
REMARK VINA RESULT:    -4.924      2.128      4.669
REMARK INTER + INTRA:          -5.482
REMARK INTER:                  -5.356
REMARK INTRA:                  -0.126
REMARK UNBOUND:                -0.125
REMARK SMILES Cc1ccc(C(C)C)cc1O
REMARK SMILES IDX 1 1 2 2 3 3 4 4 5 5 9 6 10 7 11 8 6 10 7 11 8 12
REMARK H PARENT 11 9
ROOT
ATOM      1  C   UNL     1     -22.882  13.225 -29.756  1.00  0.00     0.048 C 
ATOM      2  C   UNL     1     -22.132  13.645 -28.526  1.00  0.00    -0.009 A 
ATOM      3  C   UNL     1     -22.835  14.189 -27.442  1.00  0.00     0.007 A 
ATOM      4  C   UNL     1     -22.168  14.592 -26.280  1.00  0.00     0.004 A 
ATOM      5  C   UNL     1     -20.778  14.462 -26.170  1.00  0.00    -0.042 A 
ATOM      6  C   UNL     1     -20.075  13.918 -27.254  1.00  0.00     0.050 A 
ATOM      7  C   UNL     1     -20.744  13.518 -28.411  1.00  0.00     0.118 A 
ENDROOT
BRANCH   7   8
ATOM      8  O   UNL     1     -19.962  13.002 -29.406  1.00  0.00    -0.508 OA
ATOM      9  H   UNL     1     -19.436  12.269 -29.052  1.00  0.00     0.293 HD
ENDBRANCH   7   8
BRANCH   5  10
ATOM     10  C   UNL     1     -20.073  14.905 -24.902  1.00  0.00     0.013 C 
ATOM     11  C   UNL     1     -19.806  16.412 -24.905  1.00  0.00     0.012 C 
ATOM     12  C   UNL     1     -20.852  14.492 -23.651  1.00  0.00     0.012 C 
ENDBRANCH   5  10
TORSDOF 2
ENDMDL
MODEL 3
REMARK VINA RESULT:    -4.809      3.276      4.383
REMARK INTER + INTRA:          -5.356
REMARK INTER:                  -5.231
REMARK INTRA:                  -0.125
REMARK UNBOUND:                -0.125
REMARK SMILES Cc1ccc(C(C)C)cc1O
REMARK SMILES IDX 1 1 2 2 3 3 4 4 5 5 9 6 10 7 11 8 6 10 7 11 8 12
REMARK H PARENT 11 9
ROOT
ATOM      1  C   UNL     1     -19.539  13.752 -28.367  1.00  0.00     0.048 C 
ATOM      2  C   UNL     1     -20.595  14.510 -29.117  1.00  0.00    -0.009 A 
ATOM      3  C   UNL     1     -20.556  15.911 -29.133  1.00  0.00     0.007 A 
ATOM      4  C   UNL     1     -21.524  16.650 -29.823  1.00  0.00     0.004 A 
ATOM      5  C   UNL     1     -22.558  16.006 -30.514  1.00  0.00    -0.042 A 
ATOM      6  C   UNL     1     -22.597  14.606 -30.497  1.00  0.00     0.050 A 
ATOM      7  C   UNL     1     -21.630  13.873 -29.809  1.00  0.00     0.118 A 
ENDROOT
BRANCH   7   8
ATOM      8  O   UNL     1     -21.762  12.513 -29.857  1.00  0.00    -0.508 OA
ATOM      9  H   UNL     1     -21.761  12.160 -28.954  1.00  0.00     0.293 HD
ENDBRANCH   7   8
BRANCH   5  10
ATOM     10  C   UNL     1     -23.599  16.826 -31.255  1.00  0.00     0.013 C 
ATOM     11  C   UNL     1     -23.736  18.230 -30.661  1.00  0.00     0.012 C 
ATOM     12  C   UNL     1     -23.298  16.895 -32.754  1.00  0.00     0.012 C 
ENDBRANCH   5  10
TORSDOF 2
ENDMDL
MODEL 4
REMARK VINA RESULT:    -4.808      1.366      2.235
REMARK INTER + INTRA:          -5.355
REMARK INTER:                  -5.230
REMARK INTRA:                  -0.125
REMARK UNBOUND:                -0.125
REMARK SMILES Cc1ccc(C(C)C)cc1O
REMARK SMILES IDX 1 1 2 2 3 3 4 4 5 5 9 6 10 7 11 8 6 10 7 11 8 12
REMARK H PARENT 11 9
ROOT
ATOM      1  C   UNL     1     -21.872  15.875 -23.860  1.00  0.00     0.048 C 
ATOM      2  C   UNL     1     -21.849  15.313 -25.252  1.00  0.00    -0.009 A 
ATOM      3  C   UNL     1     -22.780  15.771 -26.195  1.00  0.00     0.007 A 
ATOM      4  C   UNL     1     -22.787  15.269 -27.500  1.00  0.00     0.004 A 
ATOM      5  C   UNL     1     -21.864  14.294 -27.899  1.00  0.00    -0.042 A 
ATOM      6  C   UNL     1     -20.934  13.836 -26.956  1.00  0.00     0.050 A 
ATOM      7  C   UNL     1     -20.930  14.339 -25.654  1.00  0.00     0.118 A 
ENDROOT
BRANCH   7   8
ATOM      8  O   UNL     1     -19.982  13.823 -24.816  1.00  0.00    -0.508 OA
ATOM      9  H   UNL     1     -19.535  14.549 -24.353  1.00  0.00     0.293 HD
ENDBRANCH   7   8
BRANCH   5  10
ATOM     10  C   UNL     1     -21.889  13.762 -29.320  1.00  0.00     0.013 C 
ATOM     11  C   UNL     1     -22.542  12.380 -29.390  1.00  0.00     0.012 C 
ATOM     12  C   UNL     1     -22.577  14.740 -30.275  1.00  0.00     0.012 C 
ENDBRANCH   5  10
TORSDOF 2
ENDMDL
MODEL 5
REMARK VINA RESULT:    -4.771      6.741      7.659
REMARK INTER + INTRA:          -5.315
REMARK INTER:                  -5.190
REMARK INTRA:                  -0.125
REMARK UNBOUND:                -0.125
REMARK SMILES Cc1ccc(C(C)C)cc1O
REMARK SMILES IDX 1 1 2 2 3 3 4 4 5 5 9 6 10 7 11 8 6 10 7 11 8 12
REMARK H PARENT 11 9
ROOT
ATOM      1  C   UNL     1     -17.670  23.804 -24.848  1.00  0.00     0.048 C 
ATOM      2  C   UNL     1     -18.013  22.483 -25.473  1.00  0.00    -0.009 A 
ATOM      3  C   UNL     1     -19.145  21.785 -25.030  1.00  0.00     0.007 A 
ATOM      4  C   UNL     1     -19.494  20.552 -25.590  1.00  0.00     0.004 A 
ATOM      5  C   UNL     1     -18.719  19.981 -26.607  1.00  0.00    -0.042 A 
ATOM      6  C   UNL     1     -17.586  20.679 -27.049  1.00  0.00     0.050 A 
ATOM      7  C   UNL     1     -17.242  21.909 -26.489  1.00  0.00     0.118 A 
ENDROOT
BRANCH   7   8
ATOM      8  O   UNL     1     -16.119  22.503 -26.993  1.00  0.00    -0.508 OA
ATOM      9  H   UNL     1     -15.509  22.702 -26.266  1.00  0.00     0.293 HD
ENDBRANCH   7   8
BRANCH   5  10
ATOM     10  C   UNL     1     -19.113  18.641 -27.201  1.00  0.00     0.013 C 
ATOM     11  C   UNL     1     -19.879  17.783 -26.191  1.00  0.00     0.012 C 
ATOM     12  C   UNL     1     -19.918  18.812 -28.492  1.00  0.00     0.012 C 
ENDBRANCH   5  10
TORSDOF 2
ENDMDL
MODEL 6
REMARK VINA RESULT:    -4.749      2.775      4.244
REMARK INTER + INTRA:          -5.291
REMARK INTER:                  -5.167
REMARK INTRA:                  -0.124
REMARK UNBOUND:                -0.125
REMARK SMILES Cc1ccc(C(C)C)cc1O
REMARK SMILES IDX 1 1 2 2 3 3 4 4 5 5 9 6 10 7 11 8 6 10 7 11 8 12
REMARK H PARENT 11 9
ROOT
ATOM      1  C   UNL     1     -22.132  14.216 -20.611  1.00  0.00     0.048 C 
ATOM      2  C   UNL     1     -21.641  14.577 -21.983  1.00  0.00    -0.009 A 
ATOM      3  C   UNL     1     -22.068  15.774 -22.574  1.00  0.00     0.007 A 
ATOM      4  C   UNL     1     -21.630  16.142 -23.851  1.00  0.00     0.004 A 
ATOM      5  C   UNL     1     -20.753  15.321 -24.572  1.00  0.00    -0.042 A 
ATOM      6  C   UNL     1     -20.327  14.124 -23.981  1.00  0.00     0.050 A 
ATOM      7  C   UNL     1     -20.766  13.762 -22.707  1.00  0.00     0.118 A 
ENDROOT
BRANCH   7   8
ATOM      8  O   UNL     1     -20.289  12.575 -22.225  1.00  0.00    -0.508 OA
ATOM      9  H   UNL     1     -19.450  12.730 -21.765  1.00  0.00     0.293 HD
ENDBRANCH   7   8
BRANCH   5  10
ATOM     10  C   UNL     1     -20.291  15.737 -25.956  1.00  0.00     0.013 C 
ATOM     11  C   UNL     1     -20.282  14.553 -26.925  1.00  0.00     0.012 C 
ATOM     12  C   UNL     1     -21.135  16.888 -26.509  1.00  0.00     0.012 C 
ENDBRANCH   5  10
TORSDOF 2
ENDMDL
MODEL 7
REMARK VINA RESULT:    -4.709      2.898      4.654
REMARK INTER + INTRA:          -5.248
REMARK INTER:                  -5.125
REMARK INTRA:                  -0.123
REMARK UNBOUND:                -0.125
REMARK SMILES Cc1ccc(C(C)C)cc1O
REMARK SMILES IDX 1 1 2 2 3 3 4 4 5 5 9 6 10 7 11 8 6 10 7 11 8 12
REMARK H PARENT 11 9
ROOT
ATOM      1  C   UNL     1     -22.523  12.388 -29.366  1.00  0.00     0.048 C 
ATOM      2  C   UNL     1     -21.921  13.764 -29.377  1.00  0.00    -0.009 A 
ATOM      3  C   UNL     1     -22.483  14.755 -30.193  1.00  0.00     0.007 A 
ATOM      4  C   UNL     1     -21.949  16.047 -30.228  1.00  0.00     0.004 A 
ATOM      5  C   UNL     1     -20.836  16.383 -29.447  1.00  0.00    -0.042 A 
ATOM      6  C   UNL     1     -20.274  15.392 -28.631  1.00  0.00     0.050 A 
ATOM      7  C   UNL     1     -20.810  14.104 -28.599  1.00  0.00     0.118 A 
ENDROOT
BRANCH   7   8
ATOM      8  O   UNL     1     -20.185  13.216 -27.770  1.00  0.00    -0.508 OA
ATOM      9  H   UNL     1     -19.826  12.485 -28.296  1.00  0.00     0.293 HD
ENDBRANCH   7   8
BRANCH   5  10
ATOM     10  C   UNL     1     -20.270  17.790 -29.499  1.00  0.00     0.013 C 
ATOM     11  C   UNL     1     -21.360  18.823 -29.794  1.00  0.00     0.012 C 
ATOM     12  C   UNL     1     -19.518  18.143 -28.213  1.00  0.00     0.012 C 
ENDBRANCH   5  10
TORSDOF 2
ENDMDL
MODEL 8
REMARK VINA RESULT:    -4.606      3.613      5.208
REMARK INTER + INTRA:          -5.135
REMARK INTER:                  -5.025
REMARK INTRA:                  -0.111
REMARK UNBOUND:                -0.125
REMARK SMILES Cc1ccc(C(C)C)cc1O
REMARK SMILES IDX 1 1 2 2 3 3 4 4 5 5 9 6 10 7 11 8 6 10 7 11 8 12
REMARK H PARENT 11 9
ROOT
ATOM      1  C   UNL     1     -22.292  18.986 -31.818  1.00  0.00     0.048 C 
ATOM      2  C   UNL     1     -22.127  17.669 -31.116  1.00  0.00    -0.009 A 
ATOM      3  C   UNL     1     -21.372  17.608 -29.936  1.00  0.00     0.007 A 
ATOM      4  C   UNL     1     -21.198  16.398 -29.256  1.00  0.00     0.004 A 
ATOM      5  C   UNL     1     -21.775  15.216 -29.737  1.00  0.00    -0.042 A 
ATOM      6  C   UNL     1     -22.529  15.277 -30.917  1.00  0.00     0.050 A 
ATOM      7  C   UNL     1     -22.701  16.486 -31.592  1.00  0.00     0.118 A 
ENDROOT
BRANCH   7   8
ATOM      8  O   UNL     1     -23.454  16.434 -32.731  1.00  0.00    -0.508 OA
ATOM      9  H   UNL     1     -24.296  15.995 -32.538  1.00  0.00     0.293 HD
ENDBRANCH   7   8
BRANCH   5  10
ATOM     10  C   UNL     1     -21.574  13.913 -28.985  1.00  0.00     0.013 C 
ATOM     11  C   UNL     1     -22.454  12.796 -29.550  1.00  0.00     0.012 C 
ATOM     12  C   UNL     1     -20.102  13.493 -28.970  1.00  0.00     0.012 C 
ENDBRANCH   5  10
TORSDOF 2
ENDMDL
