MODEL 1
REMARK VINA RESULT:    -7.507      0.000      0.000
REMARK INTER + INTRA:         -10.289
REMARK INTER:                  -9.701
REMARK INTRA:                  -0.588
REMARK UNBOUND:                -0.588
REMARK SMILES Cc1ccc(C(C)C)cc1OCc1cc(-c2ccccc2)no1
REMARK SMILES IDX 11 1 10 2 2 3 3 4 4 5 9 6 5 7 1 8 6 9 7 10 8 11 12 12 13 13
REMARK SMILES IDX 14 14 23 15 15 16 22 17 16 18 17 19 21 20 18 21 20 22 19 23
REMARK H PARENT
ROOT
ATOM      1  O   UNL     1     -20.284  18.378 -29.202  1.00  0.00    -0.485 OA
ENDROOT
BRANCH   1   2
ATOM      2  C   UNL     1     -20.993  17.289 -29.641  1.00  0.00     0.123 A 
ATOM      3  C   UNL     1     -21.964  17.551 -30.622  1.00  0.00    -0.009 A 
ATOM      4  C   UNL     1     -22.722  16.490 -31.138  1.00  0.00     0.007 A 
ATOM      5  C   UNL     1     -22.510  15.185 -30.694  1.00  0.00     0.004 A 
ATOM      6  C   UNL     1     -20.780  15.974 -29.212  1.00  0.00     0.050 A 
ATOM      7  C   UNL     1     -21.535  14.908 -29.730  1.00  0.00    -0.042 A 
ATOM      8  C   UNL     1     -22.203  18.949 -31.119  1.00  0.00     0.048 C 
BRANCH   7   9
ATOM      9  C   UNL     1     -21.308  13.477 -29.275  1.00  0.00     0.013 C 
ATOM     10  C   UNL     1     -20.666  13.425 -27.885  1.00  0.00     0.012 C 
ATOM     11  C   UNL     1     -22.602  12.661 -29.309  1.00  0.00     0.012 C 
ENDBRANCH   7   9
ENDBRANCH   1   2
BRANCH   1  12
ATOM     12  C   UNL     1     -19.133  18.153 -28.382  1.00  0.00     0.307 C 
BRANCH  12  13
ATOM     13  C   UNL     1     -19.143  19.109 -27.253  1.00  0.00     0.174 A 
ATOM     14  C   UNL     1     -19.201  20.476 -27.136  1.00  0.00     0.081 A 
ATOM     15  O   UNL     1     -19.078  18.566 -26.011  1.00  0.00    -0.357 OA
ATOM     16  C   UNL     1     -19.154  20.734 -25.740  1.00  0.00     0.114 A 
ATOM     17  N   UNL     1     -19.086  19.571 -25.068  1.00  0.00    -0.079 NA
BRANCH  16  18
ATOM     18  C   UNL     1     -19.174  22.027 -25.049  1.00  0.00     0.004 A 
ATOM     19  C   UNL     1     -20.221  22.350 -24.168  1.00  0.00     0.010 A 
ATOM     20  C   UNL     1     -18.155  22.971 -25.243  1.00  0.00     0.010 A 
ATOM     21  C   UNL     1     -20.247  23.581 -23.506  1.00  0.00     0.001 A 
ATOM     22  C   UNL     1     -18.182  24.202 -24.581  1.00  0.00     0.001 A 
ATOM     23  C   UNL     1     -19.229  24.506 -23.714  1.00  0.00     0.000 A 
ENDBRANCH  16  18
ENDBRANCH  12  13
ENDBRANCH   1  12
TORSDOF 5
ENDMDL
MODEL 2
REMARK VINA RESULT:    -7.409      2.472      3.907
REMARK INTER + INTRA:         -10.162
REMARK INTER:                  -9.219
REMARK INTRA:                  -0.942
REMARK UNBOUND:                -0.588
REMARK SMILES Cc1ccc(C(C)C)cc1OCc1cc(-c2ccccc2)no1
REMARK SMILES IDX 11 1 10 2 2 3 3 4 4 5 9 6 5 7 1 8 6 9 7 10 8 11 12 12 13 13
REMARK SMILES IDX 14 14 23 15 15 16 22 17 16 18 17 19 21 20 18 21 20 22 19 23
REMARK H PARENT
ROOT
ATOM      1  O   UNL     1     -23.017  16.481 -25.203  1.00  0.00    -0.485 OA
ENDROOT
BRANCH   1   2
ATOM      2  C   UNL     1     -22.221  15.611 -25.903  1.00  0.00     0.123 A 
ATOM      3  C   UNL     1     -21.132  15.078 -25.193  1.00  0.00    -0.009 A 
ATOM      4  C   UNL     1     -20.278  14.166 -25.829  1.00  0.00     0.007 A 
ATOM      5  C   UNL     1     -20.508  13.780 -27.150  1.00  0.00     0.004 A 
ATOM      6  C   UNL     1     -22.451  15.207 -27.223  1.00  0.00     0.050 A 
ATOM      7  C   UNL     1     -21.598  14.291 -27.863  1.00  0.00    -0.042 A 
ATOM      8  C   UNL     1     -20.870  15.475 -23.767  1.00  0.00     0.048 C 
BRANCH   7   9
ATOM      9  C   UNL     1     -21.841  13.842 -29.294  1.00  0.00     0.013 C 
ATOM     10  C   UNL     1     -22.571  12.496 -29.343  1.00  0.00     0.012 C 
ATOM     11  C   UNL     1     -22.597  14.902 -30.097  1.00  0.00     0.012 C 
ENDBRANCH   7   9
ENDBRANCH   1   2
BRANCH   1  12
ATOM     12  C   UNL     1     -23.258  17.777 -25.759  1.00  0.00     0.307 C 
BRANCH  12  13
ATOM     13  C   UNL     1     -22.060  18.623 -25.561  1.00  0.00     0.174 A 
ATOM     14  C   UNL     1     -21.176  19.268 -26.390  1.00  0.00     0.081 A 
ATOM     15  O   UNL     1     -21.696  18.847 -24.273  1.00  0.00    -0.357 OA
ATOM     16  C   UNL     1     -20.239  19.892 -25.524  1.00  0.00     0.114 A 
ATOM     17  N   UNL     1     -20.566  19.636 -24.244  1.00  0.00    -0.079 NA
BRANCH  16  18
ATOM     18  C   UNL     1     -19.071  20.706 -25.875  1.00  0.00     0.004 A 
ATOM     19  C   UNL     1     -18.882  21.972 -25.294  1.00  0.00     0.010 A 
ATOM     20  C   UNL     1     -18.115  20.247 -26.793  1.00  0.00     0.010 A 
ATOM     21  C   UNL     1     -17.772  22.755 -25.625  1.00  0.00     0.001 A 
ATOM     22  C   UNL     1     -17.005  21.030 -27.124  1.00  0.00     0.001 A 
ATOM     23  C   UNL     1     -16.835  22.284 -26.541  1.00  0.00     0.000 A 
ENDBRANCH  16  18
ENDBRANCH  12  13
ENDBRANCH   1  12
TORSDOF 5
ENDMDL
MODEL 3
REMARK VINA RESULT:    -7.267      3.790      5.644
REMARK INTER + INTRA:          -9.979
REMARK INTER:                  -9.057
REMARK INTRA:                  -0.922
REMARK UNBOUND:                -0.588
REMARK SMILES Cc1ccc(C(C)C)cc1OCc1cc(-c2ccccc2)no1
REMARK SMILES IDX 11 1 10 2 2 3 3 4 4 5 9 6 5 7 1 8 6 9 7 10 8 11 12 12 13 13
REMARK SMILES IDX 14 14 23 15 15 16 22 17 16 18 17 19 21 20 18 21 20 22 19 23
REMARK H PARENT
ROOT
ATOM      1  O   UNL     1     -19.490  16.521 -28.826  1.00  0.00    -0.485 OA
ENDROOT
BRANCH   1   2
ATOM      2  C   UNL     1     -20.627  16.008 -29.396  1.00  0.00     0.123 A 
ATOM      3  C   UNL     1     -20.817  14.625 -29.238  1.00  0.00    -0.009 A 
ATOM      4  C   UNL     1     -21.963  14.024 -29.774  1.00  0.00     0.007 A 
ATOM      5  C   UNL     1     -22.916  14.787 -30.449  1.00  0.00     0.004 A 
ATOM      6  C   UNL     1     -21.595  16.767 -30.063  1.00  0.00     0.050 A 
ATOM      7  C   UNL     1     -22.748  16.168 -30.599  1.00  0.00    -0.042 A 
ATOM      8  C   UNL     1     -19.806  13.786 -28.507  1.00  0.00     0.048 C 
BRANCH   7   9
ATOM      9  C   UNL     1     -23.807  16.983 -31.321  1.00  0.00     0.013 C 
ATOM     10  C   UNL     1     -23.776  18.452 -30.889  1.00  0.00     0.012 C 
ATOM     11  C   UNL     1     -23.677  16.858 -32.841  1.00  0.00     0.012 C 
ENDBRANCH   7   9
ENDBRANCH   1   2
BRANCH   1  12
ATOM     12  C   UNL     1     -19.617  17.644 -27.949  1.00  0.00     0.307 C 
BRANCH  12  13
ATOM     13  C   UNL     1     -20.290  17.216 -26.703  1.00  0.00     0.174 A 
ATOM     14  C   UNL     1     -20.008  16.317 -25.704  1.00  0.00     0.081 A 
ATOM     15  O   UNL     1     -21.475  17.817 -26.429  1.00  0.00    -0.357 OA
ATOM     16  C   UNL     1     -21.106  16.399 -24.807  1.00  0.00     0.114 A 
ATOM     17  N   UNL     1     -21.986  17.314 -25.252  1.00  0.00    -0.079 NA
BRANCH  16  18
ATOM     18  C   UNL     1     -21.332  15.648 -23.568  1.00  0.00     0.004 A 
ATOM     19  C   UNL     1     -22.182  16.154 -22.570  1.00  0.00     0.010 A 
ATOM     20  C   UNL     1     -20.711  14.410 -23.346  1.00  0.00     0.010 A 
ATOM     21  C   UNL     1     -22.402  15.445 -21.386  1.00  0.00     0.001 A 
ATOM     22  C   UNL     1     -20.930  13.700 -22.161  1.00  0.00     0.001 A 
ATOM     23  C   UNL     1     -21.775  14.219 -21.181  1.00  0.00     0.000 A 
ENDBRANCH  16  18
ENDBRANCH  12  13
ENDBRANCH   1  12
TORSDOF 5
ENDMDL
MODEL 4
REMARK VINA RESULT:    -7.250      1.557      3.836
REMARK INTER + INTRA:          -9.957
REMARK INTER:                  -9.329
REMARK INTRA:                  -0.628
REMARK UNBOUND:                -0.588
REMARK SMILES Cc1ccc(C(C)C)cc1OCc1cc(-c2ccccc2)no1
REMARK SMILES IDX 11 1 10 2 2 3 3 4 4 5 9 6 5 7 1 8 6 9 7 10 8 11 12 12 13 13
REMARK SMILES IDX 14 14 23 15 15 16 22 17 16 18 17 19 21 20 18 21 20 22 19 23
REMARK H PARENT
ROOT
ATOM      1  O   UNL     1     -21.696  16.686 -28.463  1.00  0.00    -0.485 OA
ENDROOT
BRANCH   1   2
ATOM      2  C   UNL     1     -21.886  17.160 -29.736  1.00  0.00     0.123 A 
ATOM      3  C   UNL     1     -22.482  16.262 -30.637  1.00  0.00    -0.009 A 
ATOM      4  C   UNL     1     -22.728  16.673 -31.954  1.00  0.00     0.007 A 
ATOM      5  C   UNL     1     -22.397  17.963 -32.370  1.00  0.00     0.004 A 
ATOM      6  C   UNL     1     -21.569  18.456 -30.159  1.00  0.00     0.050 A 
ATOM      7  C   UNL     1     -21.818  18.872 -31.478  1.00  0.00    -0.042 A 
ATOM      8  C   UNL     1     -22.854  14.870 -30.208  1.00  0.00     0.048 C 
BRANCH   7   9
ATOM      9  C   UNL     1     -21.482  20.278 -31.946  1.00  0.00     0.013 C 
ATOM     10  C   UNL     1     -21.209  21.213 -30.764  1.00  0.00     0.012 C 
ATOM     11  C   UNL     1     -20.308  20.282 -32.927  1.00  0.00     0.012 C 
ENDBRANCH   7   9
ENDBRANCH   1   2
BRANCH   1  12
ATOM     12  C   UNL     1     -20.361  16.392 -28.041  1.00  0.00     0.307 C 
BRANCH  12  13
ATOM     13  C   UNL     1     -19.830  17.536 -27.268  1.00  0.00     0.174 A 
ATOM     14  C   UNL     1     -19.299  18.762 -27.586  1.00  0.00     0.081 A 
ATOM     15  O   UNL     1     -19.839  17.400 -25.918  1.00  0.00    -0.357 OA
ATOM     16  C   UNL     1     -18.973  19.362 -26.340  1.00  0.00     0.114 A 
ATOM     17  N   UNL     1     -19.309  18.531 -25.336  1.00  0.00    -0.079 NA
BRANCH  16  18
ATOM     18  C   UNL     1     -18.366  20.673 -26.088  1.00  0.00     0.004 A 
ATOM     19  C   UNL     1     -17.128  21.009 -26.660  1.00  0.00     0.010 A 
ATOM     20  C   UNL     1     -19.002  21.623 -25.275  1.00  0.00     0.010 A 
ATOM     21  C   UNL     1     -16.543  22.256 -26.424  1.00  0.00     0.001 A 
ATOM     22  C   UNL     1     -18.416  22.871 -25.038  1.00  0.00     0.001 A 
ATOM     23  C   UNL     1     -17.187  23.186 -25.612  1.00  0.00     0.000 A 
ENDBRANCH  16  18
ENDBRANCH  12  13
ENDBRANCH   1  12
TORSDOF 5
ENDMDL
MODEL 5
REMARK VINA RESULT:    -7.238      1.637      3.503
REMARK INTER + INTRA:          -9.942
REMARK INTER:                  -9.284
REMARK INTRA:                  -0.658
REMARK UNBOUND:                -0.588
REMARK SMILES Cc1ccc(C(C)C)cc1OCc1cc(-c2ccccc2)no1
REMARK SMILES IDX 11 1 10 2 2 3 3 4 4 5 9 6 5 7 1 8 6 9 7 10 8 11 12 12 13 13
REMARK SMILES IDX 14 14 23 15 15 16 22 17 16 18 17 19 21 20 18 21 20 22 19 23
REMARK H PARENT
ROOT
ATOM      1  O   UNL     1     -21.803  16.300 -27.299  1.00  0.00    -0.485 OA
ENDROOT
BRANCH   1   2
ATOM      2  C   UNL     1     -22.128  15.975 -28.591  1.00  0.00     0.123 A 
ATOM      3  C   UNL     1     -22.492  14.636 -28.808  1.00  0.00    -0.009 A 
ATOM      4  C   UNL     1     -22.856  14.224 -30.098  1.00  0.00     0.007 A 
ATOM      5  C   UNL     1     -22.870  15.133 -31.156  1.00  0.00     0.004 A 
ATOM      6  C   UNL     1     -22.158  16.882 -29.657  1.00  0.00     0.050 A 
ATOM      7  C   UNL     1     -22.526  16.473 -30.950  1.00  0.00    -0.042 A 
ATOM      8  C   UNL     1     -22.490  13.642 -27.681  1.00  0.00     0.048 C 
BRANCH   7   9
ATOM      9  C   UNL     1     -22.567  17.450 -32.112  1.00  0.00     0.013 C 
ATOM     10  C   UNL     1     -23.973  17.552 -32.710  1.00  0.00     0.012 C 
ATOM     11  C   UNL     1     -22.044  18.830 -31.708  1.00  0.00     0.012 C 
ENDBRANCH   7   9
ENDBRANCH   1   2
BRANCH   1  12
ATOM     12  C   UNL     1     -22.269  17.547 -26.775  1.00  0.00     0.307 C 
BRANCH  12  13
ATOM     13  C   UNL     1     -21.108  18.372 -26.373  1.00  0.00     0.174 A 
ATOM     14  C   UNL     1     -20.717  19.671 -26.584  1.00  0.00     0.081 A 
ATOM     15  O   UNL     1     -20.169  17.750 -25.616  1.00  0.00    -0.357 OA
ATOM     16  C   UNL     1     -19.470  19.799 -25.917  1.00  0.00     0.114 A 
ATOM     17  N   UNL     1     -19.150  18.632 -25.329  1.00  0.00    -0.079 NA
BRANCH  16  18
ATOM     18  C   UNL     1     -18.599  20.975 -25.825  1.00  0.00     0.004 A 
ATOM     19  C   UNL     1     -17.380  21.017 -26.524  1.00  0.00     0.010 A 
ATOM     20  C   UNL     1     -18.957  22.085 -25.046  1.00  0.00     0.010 A 
ATOM     21  C   UNL     1     -16.544  22.135 -26.441  1.00  0.00     0.001 A 
ATOM     22  C   UNL     1     -18.120  23.202 -24.963  1.00  0.00     0.001 A 
ATOM     23  C   UNL     1     -16.914  23.226 -25.660  1.00  0.00     0.000 A 
ENDBRANCH  16  18
ENDBRANCH  12  13
ENDBRANCH   1  12
TORSDOF 5
ENDMDL
MODEL 6
REMARK VINA RESULT:    -7.214      4.557      6.181
REMARK INTER + INTRA:          -9.910
REMARK INTER:                  -9.076
REMARK INTRA:                  -0.834
REMARK UNBOUND:                -0.588
REMARK SMILES Cc1ccc(C(C)C)cc1OCc1cc(-c2ccccc2)no1
REMARK SMILES IDX 11 1 10 2 2 3 3 4 4 5 9 6 5 7 1 8 6 9 7 10 8 11 12 12 13 13
REMARK SMILES IDX 14 14 23 15 15 16 22 17 16 18 17 19 21 20 18 21 20 22 19 23
REMARK H PARENT
ROOT
ATOM      1  O   UNL     1     -21.361  14.871 -29.767  1.00  0.00    -0.485 OA
ENDROOT
BRANCH   1   2
ATOM      2  C   UNL     1     -21.781  16.101 -30.204  1.00  0.00     0.123 A 
ATOM      3  C   UNL     1     -21.023  17.197 -29.759  1.00  0.00    -0.009 A 
ATOM      4  C   UNL     1     -21.374  18.488 -30.174  1.00  0.00     0.007 A 
ATOM      5  C   UNL     1     -22.459  18.690 -31.029  1.00  0.00     0.004 A 
ATOM      6  C   UNL     1     -22.859  16.312 -31.071  1.00  0.00     0.050 A 
ATOM      7  C   UNL     1     -23.213  17.606 -31.492  1.00  0.00    -0.042 A 
ATOM      8  C   UNL     1     -19.846  17.001 -28.845  1.00  0.00     0.048 C 
BRANCH   7   9
ATOM      9  C   UNL     1     -24.378  17.845 -32.437  1.00  0.00     0.013 C 
ATOM     10  C   UNL     1     -25.489  16.812 -32.230  1.00  0.00     0.012 C 
ATOM     11  C   UNL     1     -24.924  19.269 -32.309  1.00  0.00     0.012 C 
ENDBRANCH   7   9
ENDBRANCH   1   2
BRANCH   1  12
ATOM     12  C   UNL     1     -22.235  14.114 -28.925  1.00  0.00     0.307 C 
BRANCH  12  13
ATOM     13  C   UNL     1     -21.786  14.235 -27.521  1.00  0.00     0.174 A 
ATOM     14  C   UNL     1     -22.328  14.743 -26.365  1.00  0.00     0.081 A 
ATOM     15  O   UNL     1     -20.548  13.751 -27.247  1.00  0.00    -0.357 OA
ATOM     16  C   UNL     1     -21.334  14.547 -25.369  1.00  0.00     0.114 A 
ATOM     17  N   UNL     1     -20.262  13.941 -25.913  1.00  0.00    -0.079 NA
BRANCH  16  18
ATOM     18  C   UNL     1     -21.378  14.913 -23.950  1.00  0.00     0.004 A 
ATOM     19  C   UNL     1     -20.705  14.137 -22.991  1.00  0.00     0.010 A 
ATOM     20  C   UNL     1     -22.088  16.041 -23.512  1.00  0.00     0.010 A 
ATOM     21  C   UNL     1     -20.744  14.478 -21.636  1.00  0.00     0.001 A 
ATOM     22  C   UNL     1     -22.126  16.382 -22.157  1.00  0.00     0.001 A 
ATOM     23  C   UNL     1     -21.455  15.600 -21.219  1.00  0.00     0.000 A 
ENDBRANCH  16  18
ENDBRANCH  12  13
ENDBRANCH   1  12
TORSDOF 5
ENDMDL
MODEL 7
REMARK VINA RESULT:    -7.152      1.593      2.376
REMARK INTER + INTRA:          -9.831
REMARK INTER:                  -9.283
REMARK INTRA:                  -0.548
REMARK UNBOUND:                -0.588
REMARK SMILES Cc1ccc(C(C)C)cc1OCc1cc(-c2ccccc2)no1
REMARK SMILES IDX 11 1 10 2 2 3 3 4 4 5 9 6 5 7 1 8 6 9 7 10 8 11 12 12 13 13
REMARK SMILES IDX 14 14 23 15 15 16 22 17 16 18 17 19 21 20 18 21 20 22 19 23
REMARK H PARENT
ROOT
ATOM      1  O   UNL     1     -21.441  18.371 -30.480  1.00  0.00    -0.485 OA
ENDROOT
BRANCH   1   2
ATOM      2  C   UNL     1     -21.748  17.044 -30.323  1.00  0.00     0.123 A 
ATOM      3  C   UNL     1     -22.724  16.537 -31.197  1.00  0.00    -0.009 A 
ATOM      4  C   UNL     1     -23.083  15.185 -31.116  1.00  0.00     0.007 A 
ATOM      5  C   UNL     1     -22.474  14.343 -30.186  1.00  0.00     0.004 A 
ATOM      6  C   UNL     1     -21.133  16.188 -29.403  1.00  0.00     0.050 A 
ATOM      7  C   UNL     1     -21.488  14.830 -29.320  1.00  0.00    -0.042 A 
ATOM      8  C   UNL     1     -23.388  17.426 -32.212  1.00  0.00     0.048 C 
BRANCH   7   9
ATOM      9  C   UNL     1     -20.823  13.892 -28.328  1.00  0.00     0.013 C 
ATOM     10  C   UNL     1     -19.304  13.858 -28.521  1.00  0.00     0.012 C 
ATOM     11  C   UNL     1     -21.183  14.249 -26.885  1.00  0.00     0.012 C 
ENDBRANCH   7   9
ENDBRANCH   1   2
BRANCH   1  12
ATOM     12  C   UNL     1     -22.133  19.328 -29.671  1.00  0.00     0.307 C 
BRANCH  12  13
ATOM     13  C   UNL     1     -21.217  19.838 -28.628  1.00  0.00     0.174 A 
ATOM     14  C   UNL     1     -20.158  20.712 -28.605  1.00  0.00     0.081 A 
ATOM     15  O   UNL     1     -21.418  19.362 -27.373  1.00  0.00    -0.357 OA
ATOM     16  C   UNL     1     -19.717  20.729 -27.255  1.00  0.00     0.114 A 
ATOM     17  N   UNL     1     -20.490  19.913 -26.516  1.00  0.00    -0.079 NA
BRANCH  16  18
ATOM     18  C   UNL     1     -18.607  21.486 -26.666  1.00  0.00     0.004 A 
ATOM     19  C   UNL     1     -17.278  21.189 -27.010  1.00  0.00     0.010 A 
ATOM     20  C   UNL     1     -18.841  22.522 -25.749  1.00  0.00     0.010 A 
ATOM     21  C   UNL     1     -16.215  21.905 -26.452  1.00  0.00     0.001 A 
ATOM     22  C   UNL     1     -17.777  23.238 -25.191  1.00  0.00     0.001 A 
ATOM     23  C   UNL     1     -16.465  22.928 -25.542  1.00  0.00     0.000 A 
ENDBRANCH  16  18
ENDBRANCH  12  13
ENDBRANCH   1  12
TORSDOF 5
ENDMDL
MODEL 8
REMARK VINA RESULT:    -7.120      3.471      4.609
REMARK INTER + INTRA:          -9.789
REMARK INTER:                  -8.875
REMARK INTRA:                  -0.914
REMARK UNBOUND:                -0.588
REMARK SMILES Cc1ccc(C(C)C)cc1OCc1cc(-c2ccccc2)no1
REMARK SMILES IDX 11 1 10 2 2 3 3 4 4 5 9 6 5 7 1 8 6 9 7 10 8 11 12 12 13 13
REMARK SMILES IDX 14 14 23 15 15 16 22 17 16 18 17 19 21 20 18 21 20 22 19 23
REMARK H PARENT
ROOT
ATOM      1  O   UNL     1     -23.131  17.215 -25.303  1.00  0.00    -0.485 OA
ENDROOT
BRANCH   1   2
ATOM      2  C   UNL     1     -22.221  16.200 -25.150  1.00  0.00     0.123 A 
ATOM      3  C   UNL     1     -21.578  15.777 -26.326  1.00  0.00    -0.009 A 
ATOM      4  C   UNL     1     -20.620  14.757 -26.255  1.00  0.00     0.007 A 
ATOM      5  C   UNL     1     -20.295  14.170 -25.031  1.00  0.00     0.004 A 
ATOM      6  C   UNL     1     -21.879  15.615 -23.926  1.00  0.00     0.050 A 
ATOM      7  C   UNL     1     -20.916  14.593 -23.851  1.00  0.00    -0.042 A 
ATOM      8  C   UNL     1     -21.907  16.401 -27.653  1.00  0.00     0.048 C 
BRANCH   7   9
ATOM      9  C   UNL     1     -20.534  13.955 -22.527  1.00  0.00     0.013 C 
ATOM     10  C   UNL     1     -19.029  14.065 -22.264  1.00  0.00     0.012 C 
ATOM     11  C   UNL     1     -21.336  14.543 -21.364  1.00  0.00     0.012 C 
ENDBRANCH   7   9
ENDBRANCH   1   2
BRANCH   1  12
ATOM     12  C   UNL     1     -22.970  18.396 -24.512  1.00  0.00     0.307 C 
BRANCH  12  13
ATOM     13  C   UNL     1     -21.897  19.231 -25.094  1.00  0.00     0.174 A 
ATOM     14  C   UNL     1     -20.721  19.768 -24.631  1.00  0.00     0.081 A 
ATOM     15  O   UNL     1     -22.058  19.587 -26.394  1.00  0.00    -0.357 OA
ATOM     16  C   UNL     1     -20.180  20.487 -25.730  1.00  0.00     0.114 A 
ATOM     17  N   UNL     1     -20.994  20.366 -26.794  1.00  0.00    -0.079 NA
BRANCH  16  18
ATOM     18  C   UNL     1     -18.938  21.264 -25.791  1.00  0.00     0.004 A 
ATOM     19  C   UNL     1     -18.819  22.477 -25.091  1.00  0.00     0.010 A 
ATOM     20  C   UNL     1     -17.840  20.821 -26.543  1.00  0.00     0.010 A 
ATOM     21  C   UNL     1     -17.639  23.224 -25.145  1.00  0.00     0.001 A 
ATOM     22  C   UNL     1     -16.660  21.569 -26.597  1.00  0.00     0.001 A 
ATOM     23  C   UNL     1     -16.560  22.770 -25.899  1.00  0.00     0.000 A 
ENDBRANCH  16  18
ENDBRANCH  12  13
ENDBRANCH   1  12
TORSDOF 5
ENDMDL
