MODEL 1
REMARK VINA RESULT:    -4.986      0.000      0.000
REMARK INTER + INTRA:          -6.661
REMARK INTER:                  -6.006
REMARK INTRA:                  -0.655
REMARK UNBOUND:                -0.655
REMARK SMILES CC(=O)Oc1ccccc1C(=O)O
REMARK SMILES IDX 5 1 6 2 7 3 8 4 9 5 10 6 4 7 2 8 3 9 1 10 11 11 12 12 13 13
REMARK H PARENT 13 14
ROOT
ATOM      1  C   UNL     1     -21.364  15.340 -22.708  1.00  0.00     0.145 A 
ATOM      2  C   UNL     1     -22.209  16.249 -23.354  1.00  0.00     0.048 A 
ATOM      3  C   UNL     1     -22.256  16.279 -24.746  1.00  0.00     0.004 A 
ATOM      4  C   UNL     1     -21.452  15.413 -25.488  1.00  0.00     0.001 A 
ATOM      5  C   UNL     1     -20.594  14.519 -24.840  1.00  0.00     0.019 A 
ATOM      6  C   UNL     1     -20.535  14.476 -23.438  1.00  0.00     0.102 A 
ENDROOT
BRANCH   1   7
ATOM      7  O   UNL     1     -21.344  15.382 -21.312  1.00  0.00    -0.426 OA
BRANCH   7   8
ATOM      8  C   UNL     1     -22.401  14.682 -20.741  1.00  0.00     0.308 C 
ATOM      9  O   UNL     1     -22.658  13.495 -20.890  1.00  0.00    -0.252 OA
ATOM     10  C   UNL     1     -23.218  15.629 -19.912  1.00  0.00     0.139 C 
ENDBRANCH   7   8
ENDBRANCH   1   7
BRANCH   6  11
ATOM     11  C   UNL     1     -19.604  13.548 -22.743  1.00  0.00     0.339 C 
ATOM     12  O   UNL     1     -18.401  13.677 -22.610  1.00  0.00    -0.246 OA
BRANCH  11  13
ATOM     13  O   UNL     1     -20.234  12.471 -22.234  1.00  0.00    -0.478 OA
ATOM     14  H   UNL     1     -19.506  11.841 -22.050  1.00  0.00     0.297 HD
ENDBRANCH  11  13
ENDBRANCH   6  11
TORSDOF 4
ENDMDL
MODEL 2
REMARK VINA RESULT:    -4.978      6.663      8.085
REMARK INTER + INTRA:          -6.652
REMARK INTER:                  -6.092
REMARK INTRA:                  -0.560
REMARK UNBOUND:                -0.655
REMARK SMILES CC(=O)Oc1ccccc1C(=O)O
REMARK SMILES IDX 5 1 6 2 7 3 8 4 9 5 10 6 4 7 2 8 3 9 1 10 11 11 12 12 13 13
REMARK H PARENT 13 14
ROOT
ATOM      1  C   UNL     1     -21.204  15.472 -29.630  1.00  0.00     0.145 A 
ATOM      2  C   UNL     1     -20.595  14.694 -28.640  1.00  0.00     0.048 A 
ATOM      3  C   UNL     1     -21.114  13.438 -28.333  1.00  0.00     0.004 A 
ATOM      4  C   UNL     1     -22.244  12.969 -29.004  1.00  0.00     0.001 A 
ATOM      5  C   UNL     1     -22.861  13.757 -29.980  1.00  0.00     0.019 A 
ATOM      6  C   UNL     1     -22.351  15.025 -30.302  1.00  0.00     0.102 A 
ENDROOT
BRANCH   1   7
ATOM      7  O   UNL     1     -20.651  16.733 -29.869  1.00  0.00    -0.426 OA
BRANCH   7   8
ATOM      8  C   UNL     1     -20.854  17.614 -28.812  1.00  0.00     0.308 C 
ATOM      9  O   UNL     1     -21.929  17.926 -28.317  1.00  0.00    -0.252 OA
ATOM     10  C   UNL     1     -19.528  18.161 -28.375  1.00  0.00     0.139 C 
ENDBRANCH   7   8
ENDBRANCH   1   7
BRANCH   6  11
ATOM     11  C   UNL     1     -23.020  15.880 -31.317  1.00  0.00     0.339 C 
ATOM     12  O   UNL     1     -24.178  16.253 -31.317  1.00  0.00    -0.246 OA
BRANCH  11  13
ATOM     13  O   UNL     1     -22.190  16.238 -32.317  1.00  0.00    -0.478 OA
ATOM     14  H   UNL     1     -21.403  16.590 -31.852  1.00  0.00     0.297 HD
ENDBRANCH  11  13
ENDBRANCH   6  11
TORSDOF 4
ENDMDL
MODEL 3
REMARK VINA RESULT:    -4.975      7.700      8.967
REMARK INTER + INTRA:          -6.648
REMARK INTER:                  -5.952
REMARK INTRA:                  -0.696
REMARK UNBOUND:                -0.655
REMARK SMILES CC(=O)Oc1ccccc1C(=O)O
REMARK SMILES IDX 5 1 6 2 7 3 8 4 9 5 10 6 4 7 2 8 3 9 1 10 11 11 12 12 13 13
REMARK H PARENT 13 14
ROOT
ATOM      1  C   UNL     1     -18.644  21.447 -25.381  1.00  0.00     0.145 A 
ATOM      2  C   UNL     1     -19.865  21.430 -24.698  1.00  0.00     0.048 A 
ATOM      3  C   UNL     1     -20.303  22.577 -24.038  1.00  0.00     0.004 A 
ATOM      4  C   UNL     1     -19.517  23.730 -24.051  1.00  0.00     0.001 A 
ATOM      5  C   UNL     1     -18.288  23.738 -24.719  1.00  0.00     0.019 A 
ATOM      6  C   UNL     1     -17.832  22.591 -25.388  1.00  0.00     0.102 A 
ENDROOT
BRANCH   1   7
ATOM      7  O   UNL     1     -18.250  20.256 -25.996  1.00  0.00    -0.426 OA
BRANCH   7   8
ATOM      8  C   UNL     1     -18.928  20.020 -27.187  1.00  0.00     0.308 C 
ATOM      9  O   UNL     1     -19.147  20.832 -28.076  1.00  0.00    -0.252 OA
ATOM     10  C   UNL     1     -19.386  18.592 -27.210  1.00  0.00     0.139 C 
ENDBRANCH   7   8
ENDBRANCH   1   7
BRANCH   6  11
ATOM     11  C   UNL     1     -16.514  22.583 -26.075  1.00  0.00     0.339 C 
ATOM     12  O   UNL     1     -15.414  22.599 -25.555  1.00  0.00    -0.246 OA
BRANCH  11  13
ATOM     13  O   UNL     1     -16.632  22.560 -27.417  1.00  0.00    -0.478 OA
ATOM     14  H   UNL     1     -16.009  21.856 -27.693  1.00  0.00     0.297 HD
ENDBRANCH  11  13
ENDBRANCH   6  11
TORSDOF 4
ENDMDL
MODEL 4
REMARK VINA RESULT:    -4.942      5.842      7.509
REMARK INTER + INTRA:          -6.608
REMARK INTER:                  -6.374
REMARK INTRA:                  -0.235
REMARK UNBOUND:                -0.655
REMARK SMILES CC(=O)Oc1ccccc1C(=O)O
REMARK SMILES IDX 5 1 6 2 7 3 8 4 9 5 10 6 4 7 2 8 3 9 1 10 11 11 12 12 13 13
REMARK H PARENT 13 14
ROOT
ATOM      1  C   UNL     1     -20.685  15.638 -29.293  1.00  0.00     0.145 A 
ATOM      2  C   UNL     1     -19.707  16.273 -28.521  1.00  0.00     0.048 A 
ATOM      3  C   UNL     1     -19.597  17.662 -28.553  1.00  0.00     0.004 A 
ATOM      4  C   UNL     1     -20.453  18.409 -29.363  1.00  0.00     0.001 A 
ATOM      5  C   UNL     1     -21.417  17.770 -30.148  1.00  0.00     0.019 A 
ATOM      6  C   UNL     1     -21.541  16.372 -30.128  1.00  0.00     0.102 A 
ENDROOT
BRANCH   1   7
ATOM      7  O   UNL     1     -20.723  14.242 -29.237  1.00  0.00    -0.426 OA
BRANCH   7   8
ATOM      8  C   UNL     1     -20.888  13.763 -27.942  1.00  0.00     0.308 C 
ATOM      9  O   UNL     1     -20.020  13.289 -27.222  1.00  0.00    -0.252 OA
ATOM     10  C   UNL     1     -22.332  13.895 -27.557  1.00  0.00     0.139 C 
ENDBRANCH   7   8
ENDBRANCH   1   7
BRANCH   6  11
ATOM     11  C   UNL     1     -22.544  15.683 -30.982  1.00  0.00     0.339 C 
ATOM     12  O   UNL     1     -23.424  14.926 -30.617  1.00  0.00    -0.246 OA
BRANCH  11  13
ATOM     13  O   UNL     1     -22.397  15.975 -32.289  1.00  0.00    -0.478 OA
ATOM     14  H   UNL     1     -22.674  15.153 -32.744  1.00  0.00     0.297 HD
ENDBRANCH  11  13
ENDBRANCH   6  11
TORSDOF 4
ENDMDL
MODEL 5
REMARK VINA RESULT:    -4.836      4.332      5.693
REMARK INTER + INTRA:          -6.480
REMARK INTER:                  -5.804
REMARK INTRA:                  -0.677
REMARK UNBOUND:                -0.655
REMARK SMILES CC(=O)Oc1ccccc1C(=O)O
REMARK SMILES IDX 5 1 6 2 7 3 8 4 9 5 10 6 4 7 2 8 3 9 1 10 11 11 12 12 13 13
REMARK H PARENT 13 14
ROOT
ATOM      1  C   UNL     1     -20.743  15.059 -27.902  1.00  0.00     0.145 A 
ATOM      2  C   UNL     1     -20.175  16.338 -27.930  1.00  0.00     0.048 A 
ATOM      3  C   UNL     1     -20.469  17.201 -28.984  1.00  0.00     0.004 A 
ATOM      4  C   UNL     1     -21.315  16.782 -30.011  1.00  0.00     0.001 A 
ATOM      5  C   UNL     1     -21.865  15.496 -29.990  1.00  0.00     0.019 A 
ATOM      6  C   UNL     1     -21.580  14.615 -28.936  1.00  0.00     0.102 A 
ENDROOT
BRANCH   1   7
ATOM      7  O   UNL     1     -20.385  14.235 -26.832  1.00  0.00    -0.426 OA
BRANCH   7   8
ATOM      8  C   UNL     1     -21.016  14.594 -25.646  1.00  0.00     0.308 C 
ATOM      9  O   UNL     1     -22.193  14.901 -25.509  1.00  0.00    -0.252 OA
ATOM     10  C   UNL     1     -20.009  14.572 -24.535  1.00  0.00     0.139 C 
ENDBRANCH   7   8
ENDBRANCH   1   7
BRANCH   6  11
ATOM     11  C   UNL     1     -22.138  13.237 -28.922  1.00  0.00     0.339 C 
ATOM     12  O   UNL     1     -21.973  12.369 -29.758  1.00  0.00    -0.246 OA
BRANCH  11  13
ATOM     13  O   UNL     1     -22.901  13.001 -27.837  1.00  0.00    -0.478 OA
ATOM     14  H   UNL     1     -23.317  12.134 -28.028  1.00  0.00     0.297 HD
ENDBRANCH  11  13
ENDBRANCH   6  11
TORSDOF 4
ENDMDL
MODEL 6
REMARK VINA RESULT:    -4.783      3.611      5.491
REMARK INTER + INTRA:          -6.417
REMARK INTER:                  -6.000
REMARK INTRA:                  -0.417
REMARK UNBOUND:                -0.655
REMARK SMILES CC(=O)Oc1ccccc1C(=O)O
REMARK SMILES IDX 5 1 6 2 7 3 8 4 9 5 10 6 4 7 2 8 3 9 1 10 11 11 12 12 13 13
REMARK H PARENT 13 14
ROOT
ATOM      1  C   UNL     1     -20.289  14.979 -27.495  1.00  0.00     0.145 A 
ATOM      2  C   UNL     1     -19.884  15.678 -28.638  1.00  0.00     0.048 A 
ATOM      3  C   UNL     1     -19.640  17.047 -28.559  1.00  0.00     0.004 A 
ATOM      4  C   UNL     1     -19.813  17.716 -27.346  1.00  0.00     0.001 A 
ATOM      5  C   UNL     1     -20.236  17.018 -26.210  1.00  0.00     0.019 A 
ATOM      6  C   UNL     1     -20.486  15.638 -26.273  1.00  0.00     0.102 A 
ENDROOT
BRANCH   1   7
ATOM      7  O   UNL     1     -20.544  13.614 -27.650  1.00  0.00    -0.426 OA
BRANCH   7   8
ATOM      8  C   UNL     1     -21.820  13.361 -28.142  1.00  0.00     0.308 C 
ATOM      9  O   UNL     1     -22.874  13.457 -27.527  1.00  0.00    -0.252 OA
ATOM     10  C   UNL     1     -21.710  12.918 -29.571  1.00  0.00     0.139 C 
ENDBRANCH   7   8
ENDBRANCH   1   7
BRANCH   6  11
ATOM     11  C   UNL     1     -20.964  14.895 -25.077  1.00  0.00     0.339 C 
ATOM     12  O   UNL     1     -21.904  15.184 -24.360  1.00  0.00    -0.246 OA
BRANCH  11  13
ATOM     13  O   UNL     1     -20.224  13.799 -24.821  1.00  0.00    -0.478 OA
ATOM     14  H   UNL     1     -20.876  13.068 -24.837  1.00  0.00     0.297 HD
ENDBRANCH  11  13
ENDBRANCH   6  11
TORSDOF 4
ENDMDL
MODEL 7
REMARK VINA RESULT:    -4.747      4.579      6.124
REMARK INTER + INTRA:          -6.373
REMARK INTER:                  -5.829
REMARK INTRA:                  -0.544
REMARK UNBOUND:                -0.655
REMARK SMILES CC(=O)Oc1ccccc1C(=O)O
REMARK SMILES IDX 5 1 6 2 7 3 8 4 9 5 10 6 4 7 2 8 3 9 1 10 11 11 12 12 13 13
REMARK H PARENT 13 14
ROOT
ATOM      1  C   UNL     1     -20.868  14.672 -28.030  1.00  0.00     0.145 A 
ATOM      2  C   UNL     1     -21.609  13.488 -27.948  1.00  0.00     0.048 A 
ATOM      3  C   UNL     1     -22.541  13.187 -28.940  1.00  0.00     0.004 A 
ATOM      4  C   UNL     1     -22.739  14.072 -30.000  1.00  0.00     0.001 A 
ATOM      5  C   UNL     1     -22.010  15.263 -30.069  1.00  0.00     0.019 A 
ATOM      6  C   UNL     1     -21.068  15.582 -29.078  1.00  0.00     0.102 A 
ENDROOT
BRANCH   1   7
ATOM      7  O   UNL     1     -19.972  14.927 -26.988  1.00  0.00    -0.426 OA
BRANCH   7   8
ATOM      8  C   UNL     1     -20.611  15.327 -25.820  1.00  0.00     0.308 C 
ATOM      9  O   UNL     1     -21.360  16.286 -25.688  1.00  0.00    -0.252 OA
ATOM     10  C   UNL     1     -20.217  14.399 -24.709  1.00  0.00     0.139 C 
ENDBRANCH   7   8
ENDBRANCH   1   7
BRANCH   6  11
ATOM     11  C   UNL     1     -20.311  16.860 -29.129  1.00  0.00     0.339 C 
ATOM     12  O   UNL     1     -20.756  17.970 -29.356  1.00  0.00    -0.246 OA
BRANCH  11  13
ATOM     13  O   UNL     1     -18.995  16.691 -28.893  1.00  0.00    -0.478 OA
ATOM     14  H   UNL     1     -18.969  16.276 -28.006  1.00  0.00     0.297 HD
ENDBRANCH  11  13
ENDBRANCH   6  11
TORSDOF 4
ENDMDL
MODEL 8
REMARK VINA RESULT:    -4.672      4.638      6.333
REMARK INTER + INTRA:          -6.283
REMARK INTER:                  -5.564
REMARK INTRA:                  -0.719
REMARK UNBOUND:                -0.655
REMARK SMILES CC(=O)Oc1ccccc1C(=O)O
REMARK SMILES IDX 5 1 6 2 7 3 8 4 9 5 10 6 4 7 2 8 3 9 1 10 11 11 12 12 13 13
REMARK H PARENT 13 14
ROOT
ATOM      1  C   UNL     1     -21.276  15.323 -27.293  1.00  0.00     0.145 A 
ATOM      2  C   UNL     1     -21.768  14.533 -26.249  1.00  0.00     0.048 A 
ATOM      3  C   UNL     1     -21.439  14.846 -24.932  1.00  0.00     0.004 A 
ATOM      4  C   UNL     1     -20.611  15.936 -24.662  1.00  0.00     0.001 A 
ATOM      5  C   UNL     1     -20.105  16.713 -25.710  1.00  0.00     0.019 A 
ATOM      6  C   UNL     1     -20.427  16.411 -27.042  1.00  0.00     0.102 A 
ENDROOT
BRANCH   1   7
ATOM      7  O   UNL     1     -21.621  14.937 -28.591  1.00  0.00    -0.426 OA
BRANCH   7   8
ATOM      8  C   UNL     1     -21.001  13.754 -28.979  1.00  0.00     0.308 C 
ATOM      9  O   UNL     1     -19.798  13.533 -29.005  1.00  0.00    -0.252 OA
ATOM     10  C   UNL     1     -22.053  12.769 -29.396  1.00  0.00     0.139 C 
ENDBRANCH   7   8
ENDBRANCH   1   7
BRANCH   6  11
ATOM     11  C   UNL     1     -19.870  17.214 -28.162  1.00  0.00     0.339 C 
ATOM     12  O   UNL     1     -20.145  18.363 -28.450  1.00  0.00    -0.246 OA
BRANCH  11  13
ATOM     13  O   UNL     1     -18.973  16.525 -28.895  1.00  0.00    -0.478 OA
ATOM     14  H   UNL     1     -18.350  17.213 -29.209  1.00  0.00     0.297 HD
ENDBRANCH  11  13
ENDBRANCH   6  11
TORSDOF 4
ENDMDL
