MODEL 1
REMARK VINA RESULT:    -5.014      0.000      0.000
REMARK INTER + INTRA:          -5.580
REMARK INTER:                  -5.454
REMARK INTRA:                  -0.126
REMARK UNBOUND:                -0.126
REMARK SMILES Cc1ccc(C(C)C)cc1O
REMARK SMILES IDX 1 1 2 2 3 3 4 4 5 5 9 6 10 7 11 8 6 10 7 11 8 12
REMARK H PARENT 11 9
ROOT
ATOM      1  C   UNL     1     -20.103  15.098 -24.126  1.00  0.00     0.048 C 
ATOM      2  C   UNL     1     -20.825  14.770 -25.400  1.00  0.00    -0.009 A 
ATOM      3  C   UNL     1     -20.176  14.009 -26.383  1.00  0.00     0.007 A 
ATOM      4  C   UNL     1     -20.818  13.685 -27.582  1.00  0.00     0.004 A 
ATOM      5  C   UNL     1     -22.128  14.115 -27.833  1.00  0.00    -0.042 A 
ATOM      6  C   UNL     1     -22.776  14.876 -26.851  1.00  0.00     0.050 A 
ATOM      7  C   UNL     1     -22.132  15.197 -25.656  1.00  0.00     0.118 A 
ENDROOT
BRANCH   7   8
ATOM      8  O   UNL     1     -22.854  15.944 -24.768  1.00  0.00    -0.508 OA
ATOM      9  H   UNL     1     -23.408  16.572 -25.256  1.00  0.00     0.293 HD
ENDBRANCH   7   8
BRANCH   5  10
ATOM     10  C   UNL     1     -22.807  13.753 -29.141  1.00  0.00     0.013 C 
ATOM     11  C   UNL     1     -22.340  14.657 -30.285  1.00  0.00     0.012 C 
ATOM     12  C   UNL     1     -22.602  12.278 -29.493  1.00  0.00     0.012 C 
ENDBRANCH   5  10
TORSDOF 2
ENDMDL
MODEL 2
REMARK VINA RESULT:    -4.945      2.076      4.663
REMARK INTER + INTRA:          -5.505
REMARK INTER:                  -5.379
REMARK INTRA:                  -0.125
REMARK UNBOUND:                -0.126
REMARK SMILES Cc1ccc(C(C)C)cc1O
REMARK SMILES IDX 1 1 2 2 3 3 4 4 5 5 9 6 10 7 11 8 6 10 7 11 8 12
REMARK H PARENT 11 9
ROOT
ATOM      1  C   UNL     1     -22.858  13.207 -29.751  1.00  0.00     0.048 C 
ATOM      2  C   UNL     1     -22.122  13.643 -28.518  1.00  0.00    -0.009 A 
ATOM      3  C   UNL     1     -22.838  14.195 -27.447  1.00  0.00     0.007 A 
ATOM      4  C   UNL     1     -22.184  14.612 -26.283  1.00  0.00     0.004 A 
ATOM      5  C   UNL     1     -20.794  14.488 -26.158  1.00  0.00    -0.042 A 
ATOM      6  C   UNL     1     -20.079  13.937 -27.229  1.00  0.00     0.050 A 
ATOM      7  C   UNL     1     -20.735  13.522 -28.388  1.00  0.00     0.118 A 
ENDROOT
BRANCH   7   8
ATOM      8  O   UNL     1     -19.941  12.999 -29.371  1.00  0.00    -0.508 OA
ATOM      9  H   UNL     1     -20.472  12.414 -29.933  1.00  0.00     0.293 HD
ENDBRANCH   7   8
BRANCH   5  10
ATOM     10  C   UNL     1     -20.104  14.947 -24.887  1.00  0.00     0.013 C 
ATOM     11  C   UNL     1     -19.930  16.467 -24.860  1.00  0.00     0.012 C 
ATOM     12  C   UNL     1     -20.841  14.460 -23.638  1.00  0.00     0.012 C 
ENDBRANCH   5  10
TORSDOF 2
ENDMDL
MODEL 3
REMARK VINA RESULT:    -4.834      1.377      2.232
REMARK INTER + INTRA:          -5.384
REMARK INTER:                  -5.259
REMARK INTRA:                  -0.125
REMARK UNBOUND:                -0.126
REMARK SMILES Cc1ccc(C(C)C)cc1O
REMARK SMILES IDX 1 1 2 2 3 3 4 4 5 5 9 6 10 7 11 8 6 10 7 11 8 12
REMARK H PARENT 11 9
ROOT
ATOM      1  C   UNL     1     -21.818  15.811 -23.777  1.00  0.00     0.048 C 
ATOM      2  C   UNL     1     -21.769  15.254 -25.170  1.00  0.00    -0.009 A 
ATOM      3  C   UNL     1     -22.673  15.726 -26.132  1.00  0.00     0.007 A 
ATOM      4  C   UNL     1     -22.656  15.229 -27.440  1.00  0.00     0.004 A 
ATOM      5  C   UNL     1     -21.734  14.245 -27.821  1.00  0.00    -0.042 A 
ATOM      6  C   UNL     1     -20.831  13.774 -26.858  1.00  0.00     0.050 A 
ATOM      7  C   UNL     1     -20.851  14.272 -25.555  1.00  0.00     0.118 A 
ENDROOT
BRANCH   7   8
ATOM      8  O   UNL     1     -19.928  13.743 -24.697  1.00  0.00    -0.508 OA
ATOM      9  H   UNL     1     -19.681  12.856 -25.001  1.00  0.00     0.293 HD
ENDBRANCH   7   8
BRANCH   5  10
ATOM     10  C   UNL     1     -21.731  13.719 -29.244  1.00  0.00     0.013 C 
ATOM     11  C   UNL     1     -22.504  12.402 -29.357  1.00  0.00     0.012 C 
ATOM     12  C   UNL     1     -22.275  14.756 -30.229  1.00  0.00     0.012 C 
ENDBRANCH   5  10
TORSDOF 2
ENDMDL
MODEL 4
REMARK VINA RESULT:    -4.823      3.178      4.292
REMARK INTER + INTRA:          -5.371
REMARK INTER:                  -5.246
REMARK INTRA:                  -0.125
REMARK UNBOUND:                -0.126
REMARK SMILES Cc1ccc(C(C)C)cc1O
REMARK SMILES IDX 1 1 2 2 3 3 4 4 5 5 9 6 10 7 11 8 6 10 7 11 8 12
REMARK H PARENT 11 9
ROOT
ATOM      1  C   UNL     1     -19.537  13.726 -28.345  1.00  0.00     0.048 C 
ATOM      2  C   UNL     1     -20.587  14.485 -29.103  1.00  0.00    -0.009 A 
ATOM      3  C   UNL     1     -20.538  15.886 -29.129  1.00  0.00     0.007 A 
ATOM      4  C   UNL     1     -21.500  16.626 -29.825  1.00  0.00     0.004 A 
ATOM      5  C   UNL     1     -22.539  15.985 -30.513  1.00  0.00    -0.042 A 
ATOM      6  C   UNL     1     -22.587  14.584 -30.485  1.00  0.00     0.050 A 
ATOM      7  C   UNL     1     -21.625  13.850 -29.790  1.00  0.00     0.118 A 
ENDROOT
BRANCH   7   8
ATOM      8  O   UNL     1     -21.767  12.491 -29.828  1.00  0.00    -0.508 OA
ATOM      9  H   UNL     1     -21.634  12.131 -28.938  1.00  0.00     0.293 HD
ENDBRANCH   7   8
BRANCH   5  10
ATOM     10  C   UNL     1     -23.573  16.805 -31.260  1.00  0.00     0.013 C 
ATOM     11  C   UNL     1     -23.736  18.198 -30.647  1.00  0.00     0.012 C 
ATOM     12  C   UNL     1     -23.244  16.901 -32.752  1.00  0.00     0.012 C 
ENDBRANCH   5  10
TORSDOF 2
ENDMDL
MODEL 5
REMARK VINA RESULT:    -4.770      6.811      7.767
REMARK INTER + INTRA:          -5.314
REMARK INTER:                  -5.189
REMARK INTRA:                  -0.125
REMARK UNBOUND:                -0.126
REMARK SMILES Cc1ccc(C(C)C)cc1O
REMARK SMILES IDX 1 1 2 2 3 3 4 4 5 5 9 6 10 7 11 8 6 10 7 11 8 12
REMARK H PARENT 11 9
ROOT
ATOM      1  C   UNL     1     -17.670  23.829 -24.845  1.00  0.00     0.048 C 
ATOM      2  C   UNL     1     -18.022  22.503 -25.456  1.00  0.00    -0.009 A 
ATOM      3  C   UNL     1     -19.153  21.813 -24.997  1.00  0.00     0.007 A 
ATOM      4  C   UNL     1     -19.510  20.575 -25.543  1.00  0.00     0.004 A 
ATOM      5  C   UNL     1     -18.745  19.994 -26.563  1.00  0.00    -0.042 A 
ATOM      6  C   UNL     1     -17.615  20.685 -27.020  1.00  0.00     0.050 A 
ATOM      7  C   UNL     1     -17.262  21.919 -26.474  1.00  0.00     0.118 A 
ENDROOT
BRANCH   7   8
ATOM      8  O   UNL     1     -16.142  22.506 -26.993  1.00  0.00    -0.508 OA
ATOM      9  H   UNL     1     -15.424  21.855 -27.021  1.00  0.00     0.293 HD
ENDBRANCH   7   8
BRANCH   5  10
ATOM     10  C   UNL     1     -19.149  18.651 -27.141  1.00  0.00     0.013 C 
ATOM     11  C   UNL     1     -19.898  17.799 -26.114  1.00  0.00     0.012 C 
ATOM     12  C   UNL     1     -19.974  18.813 -28.420  1.00  0.00     0.012 C 
ENDBRANCH   5  10
TORSDOF 2
ENDMDL
MODEL 6
REMARK VINA RESULT:    -4.738      2.766      4.284
REMARK INTER + INTRA:          -5.279
REMARK INTER:                  -5.154
REMARK INTRA:                  -0.125
REMARK UNBOUND:                -0.126
REMARK SMILES Cc1ccc(C(C)C)cc1O
REMARK SMILES IDX 1 1 2 2 3 3 4 4 5 5 9 6 10 7 11 8 6 10 7 11 8 12
REMARK H PARENT 11 9
ROOT
ATOM      1  C   UNL     1     -22.102  14.342 -20.639  1.00  0.00     0.048 C 
ATOM      2  C   UNL     1     -21.607  14.661 -22.020  1.00  0.00    -0.009 A 
ATOM      3  C   UNL     1     -21.993  15.863 -22.630  1.00  0.00     0.007 A 
ATOM      4  C   UNL     1     -21.550  16.192 -23.915  1.00  0.00     0.004 A 
ATOM      5  C   UNL     1     -20.711  15.326 -24.628  1.00  0.00    -0.042 A 
ATOM      6  C   UNL     1     -20.326  14.124 -24.019  1.00  0.00     0.050 A 
ATOM      7  C   UNL     1     -20.769  13.800 -22.736  1.00  0.00     0.118 A 
ENDROOT
BRANCH   7   8
ATOM      8  O   UNL     1     -20.335  12.604 -22.237  1.00  0.00    -0.508 OA
ATOM      9  H   UNL     1     -20.964  12.288 -21.569  1.00  0.00     0.293 HD
ENDBRANCH   7   8
BRANCH   5  10
ATOM     10  C   UNL     1     -20.242  15.700 -26.022  1.00  0.00     0.013 C 
ATOM     11  C   UNL     1     -20.306  14.505 -26.976  1.00  0.00     0.012 C 
ATOM     12  C   UNL     1     -21.031  16.887 -26.581  1.00  0.00     0.012 C 
ENDBRANCH   5  10
TORSDOF 2
ENDMDL
MODEL 7
REMARK VINA RESULT:    -4.716      3.146      5.029
REMARK INTER + INTRA:          -5.255
REMARK INTER:                  -5.132
REMARK INTRA:                  -0.123
REMARK UNBOUND:                -0.126
REMARK SMILES Cc1ccc(C(C)C)cc1O
REMARK SMILES IDX 1 1 2 2 3 3 4 4 5 5 9 6 10 7 11 8 6 10 7 11 8 12
REMARK H PARENT 11 9
ROOT
ATOM      1  C   UNL     1     -22.403  18.774 -31.575  1.00  0.00     0.048 C 
ATOM      2  C   UNL     1     -22.163  17.410 -30.995  1.00  0.00    -0.009 A 
ATOM      3  C   UNL     1     -21.315  17.273 -29.887  1.00  0.00     0.007 A 
ATOM      4  C   UNL     1     -21.069  16.017 -29.322  1.00  0.00     0.004 A 
ATOM      5  C   UNL     1     -21.663  14.864 -29.850  1.00  0.00    -0.042 A 
ATOM      6  C   UNL     1     -22.510  15.002 -30.958  1.00  0.00     0.050 A 
ATOM      7  C   UNL     1     -22.754  16.256 -31.519  1.00  0.00     0.118 A 
ENDROOT
BRANCH   7   8
ATOM      8  O   UNL     1     -23.594  16.277 -32.596  1.00  0.00    -0.508 OA
ATOM      9  H   UNL     1     -23.086  16.099 -33.402  1.00  0.00     0.293 HD
ENDBRANCH   7   8
BRANCH   5  10
ATOM     10  C   UNL     1     -21.383  13.511 -29.223  1.00  0.00     0.013 C 
ATOM     11  C   UNL     1     -20.984  13.646 -27.751  1.00  0.00     0.012 C 
ATOM     12  C   UNL     1     -22.572  12.560 -29.380  1.00  0.00     0.012 C 
ENDBRANCH   5  10
TORSDOF 2
ENDMDL
MODEL 8
REMARK VINA RESULT:    -4.701      2.897      4.615
REMARK INTER + INTRA:          -5.239
REMARK INTER:                  -5.116
REMARK INTRA:                  -0.123
REMARK UNBOUND:                -0.126
REMARK SMILES Cc1ccc(C(C)C)cc1O
REMARK SMILES IDX 1 1 2 2 3 3 4 4 5 5 9 6 10 7 11 8 6 10 7 11 8 12
REMARK H PARENT 11 9
ROOT
ATOM      1  C   UNL     1     -22.521  12.390 -29.360  1.00  0.00     0.048 C 
ATOM      2  C   UNL     1     -21.923  13.766 -29.375  1.00  0.00    -0.009 A 
ATOM      3  C   UNL     1     -22.491  14.755 -30.190  1.00  0.00     0.007 A 
ATOM      4  C   UNL     1     -21.958  16.048 -30.229  1.00  0.00     0.004 A 
ATOM      5  C   UNL     1     -20.842  16.388 -29.453  1.00  0.00    -0.042 A 
ATOM      6  C   UNL     1     -20.274  15.399 -28.639  1.00  0.00     0.050 A 
ATOM      7  C   UNL     1     -20.809  14.110 -28.603  1.00  0.00     0.118 A 
ENDROOT
BRANCH   7   8
ATOM      8  O   UNL     1     -20.178  13.224 -27.776  1.00  0.00    -0.508 OA
ATOM      9  H   UNL     1     -19.491  13.688 -27.273  1.00  0.00     0.293 HD
ENDBRANCH   7   8
BRANCH   5  10
ATOM     10  C   UNL     1     -20.279  17.796 -29.510  1.00  0.00     0.013 C 
ATOM     11  C   UNL     1     -21.371  18.825 -29.814  1.00  0.00     0.012 C 
ATOM     12  C   UNL     1     -19.533  18.156 -28.223  1.00  0.00     0.012 C 
ENDBRANCH   5  10
TORSDOF 2
ENDMDL
