MODEL 1
REMARK VINA RESULT:    -7.662      0.000      0.000
REMARK INTER + INTRA:         -10.511
REMARK INTER:                  -9.902
REMARK INTRA:                  -0.609
REMARK UNBOUND:                -0.609
REMARK SMILES Cc1ccc(-c2cc(COc3cc(C(C)C)ccc3C)on2)cc1
REMARK SMILES IDX 9 1 8 2 6 3 7 4 22 5 21 6 5 7 2 8 3 9 24 10 4 11 23 12 1 13
REMARK SMILES IDX 10 14 11 15 12 16 19 17 13 18 18 19 17 20 20 21 14 22 15 23
REMARK SMILES IDX 16 24
REMARK H PARENT
ROOT
ATOM      1  C   UNL     1     -19.136  18.129 -28.268  1.00  0.00     0.307 C 
ENDROOT
BRANCH   1   2
ATOM      2  C   UNL     1     -19.144  19.109 -27.157  1.00  0.00     0.174 A 
ATOM      3  C   UNL     1     -19.171  20.758 -25.668  1.00  0.00     0.114 A 
ATOM      4  C   UNL     1     -19.206  20.478 -27.062  1.00  0.00     0.081 A 
ATOM      5  N   UNL     1     -19.094  19.605 -24.978  1.00  0.00    -0.079 NA
ATOM      6  O   UNL     1     -19.077  18.587 -25.906  1.00  0.00    -0.357 OA
BRANCH   3   7
ATOM      7  C   UNL     1     -19.209  22.061 -24.994  1.00  0.00     0.004 A 
ATOM      8  C   UNL     1     -19.263  24.574 -23.692  1.00  0.00    -0.051 A 
ATOM      9  C   UNL     1     -18.216  24.245 -24.556  1.00  0.00     0.004 A 
ATOM     10  C   UNL     1     -20.294  23.651 -23.499  1.00  0.00     0.004 A 
ATOM     11  C   UNL     1     -18.187  23.000 -25.195  1.00  0.00     0.011 A 
ATOM     12  C   UNL     1     -20.265  22.405 -24.138  1.00  0.00     0.011 A 
ATOM     13  C   UNL     1     -19.312  25.920 -23.033  1.00  0.00     0.044 C 
ENDBRANCH   3   7
ENDBRANCH   1   2
BRANCH   1  14
ATOM     14  O   UNL     1     -20.289  18.384 -29.067  1.00  0.00    -0.485 OA
BRANCH  14  15
ATOM     15  C   UNL     1     -20.968  17.302 -29.566  1.00  0.00     0.123 A 
ATOM     16  C   UNL     1     -20.780  15.977 -29.154  1.00  0.00     0.050 A 
ATOM     17  C   UNL     1     -21.913  17.592 -30.564  1.00  0.00    -0.009 A 
ATOM     18  C   UNL     1     -21.522  14.927 -29.722  1.00  0.00    -0.042 A 
ATOM     19  C   UNL     1     -22.655  16.548 -31.132  1.00  0.00     0.007 A 
ATOM     20  C   UNL     1     -22.461  15.230 -30.715  1.00  0.00     0.004 A 
ATOM     21  C   UNL     1     -22.140  19.004 -31.028  1.00  0.00     0.048 C 
BRANCH  18  22
ATOM     22  C   UNL     1     -21.294  13.500 -29.253  1.00  0.00     0.013 C 
ATOM     23  C   UNL     1     -20.660  13.459 -27.860  1.00  0.00     0.012 C 
ATOM     24  C   UNL     1     -22.588  12.682 -29.288  1.00  0.00     0.012 C 
ENDBRANCH  18  22
ENDBRANCH  14  15
ENDBRANCH   1  14
TORSDOF 5
ENDMDL
MODEL 2
REMARK VINA RESULT:    -7.503      2.540      4.158
REMARK INTER + INTRA:         -10.306
REMARK INTER:                  -9.478
REMARK INTRA:                  -0.828
REMARK UNBOUND:                -0.609
REMARK SMILES Cc1ccc(-c2cc(COc3cc(C(C)C)ccc3C)on2)cc1
REMARK SMILES IDX 9 1 8 2 6 3 7 4 22 5 21 6 5 7 2 8 3 9 24 10 4 11 23 12 1 13
REMARK SMILES IDX 10 14 11 15 12 16 19 17 13 18 18 19 17 20 20 21 14 22 15 23
REMARK SMILES IDX 16 24
REMARK H PARENT
ROOT
ATOM      1  C   UNL     1     -23.687  17.499 -26.148  1.00  0.00     0.307 C 
ENDROOT
BRANCH   1   2
ATOM      2  C   UNL     1     -22.522  18.356 -26.468  1.00  0.00     0.174 A 
ATOM      3  C   UNL     1     -20.717  19.628 -26.704  1.00  0.00     0.114 A 
ATOM      4  C   UNL     1     -21.485  18.902 -25.753  1.00  0.00     0.081 A 
ATOM      5  N   UNL     1     -21.278  19.512 -27.921  1.00  0.00    -0.079 NA
ATOM      6  O   UNL     1     -22.397  18.723 -27.769  1.00  0.00    -0.357 OA
BRANCH   3   7
ATOM      7  C   UNL     1     -19.492  20.409 -26.489  1.00  0.00     0.004 A 
ATOM      8  C   UNL     1     -17.143  21.932 -26.073  1.00  0.00    -0.051 A 
ATOM      9  C   UNL     1     -18.328  22.260 -25.409  1.00  0.00     0.004 A 
ATOM     10  C   UNL     1     -17.132  20.827 -26.928  1.00  0.00     0.004 A 
ATOM     11  C   UNL     1     -19.490  21.509 -25.619  1.00  0.00     0.011 A 
ATOM     12  C   UNL     1     -18.295  20.077 -27.139  1.00  0.00     0.011 A 
ATOM     13  C   UNL     1     -15.888  22.714 -25.822  1.00  0.00     0.044 C 
ENDBRANCH   3   7
ENDBRANCH   1   2
BRANCH   1  14
ATOM     14  O   UNL     1     -23.204  16.393 -25.388  1.00  0.00    -0.485 OA
BRANCH  14  15
ATOM     15  C   UNL     1     -22.356  15.515 -26.013  1.00  0.00     0.123 A 
ATOM     16  C   UNL     1     -22.503  15.056 -27.328  1.00  0.00     0.050 A 
ATOM     17  C   UNL     1     -21.272  15.069 -25.239  1.00  0.00    -0.009 A 
ATOM     18  C   UNL     1     -21.583  14.154 -27.890  1.00  0.00    -0.042 A 
ATOM     19  C   UNL     1     -20.354  14.170 -25.796  1.00  0.00     0.007 A 
ATOM     20  C   UNL     1     -20.507  13.718 -27.107  1.00  0.00     0.004 A 
ATOM     21  C   UNL     1     -21.086  15.543 -23.824  1.00  0.00     0.048 C 
BRANCH  18  22
ATOM     22  C   UNL     1     -21.771  13.675 -29.320  1.00  0.00     0.013 C 
ATOM     23  C   UNL     1     -22.579  12.376 -29.376  1.00  0.00     0.012 C 
ATOM     24  C   UNL     1     -22.410  14.754 -30.197  1.00  0.00     0.012 C 
ENDBRANCH  18  22
ENDBRANCH  14  15
ENDBRANCH   1  14
TORSDOF 5
ENDMDL
MODEL 3
REMARK VINA RESULT:    -7.421      1.912      8.950
REMARK INTER + INTRA:         -10.200
REMARK INTER:                  -9.617
REMARK INTRA:                  -0.583
REMARK UNBOUND:                -0.609
REMARK SMILES Cc1ccc(-c2cc(COc3cc(C(C)C)ccc3C)on2)cc1
REMARK SMILES IDX 9 1 8 2 6 3 7 4 22 5 21 6 5 7 2 8 3 9 24 10 4 11 23 12 1 13
REMARK SMILES IDX 10 14 11 15 12 16 19 17 13 18 18 19 17 20 20 21 14 22 15 23
REMARK SMILES IDX 16 24
REMARK H PARENT
ROOT
ATOM      1  C   UNL     1     -18.393  20.260 -27.256  1.00  0.00     0.307 C 
ENDROOT
BRANCH   1   2
ATOM      2  C   UNL     1     -19.044  18.930 -27.207  1.00  0.00     0.174 A 
ATOM      3  C   UNL     1     -20.029  16.948 -27.386  1.00  0.00     0.114 A 
ATOM      4  C   UNL     1     -19.534  18.048 -28.139  1.00  0.00     0.081 A 
ATOM      5  N   UNL     1     -19.837  17.175 -26.074  1.00  0.00    -0.079 NA
ATOM      6  O   UNL     1     -19.226  18.406 -25.969  1.00  0.00    -0.357 OA
BRANCH   3   7
ATOM      7  C   UNL     1     -20.664  15.717 -27.873  1.00  0.00     0.004 A 
ATOM      8  C   UNL     1     -21.900  13.344 -28.795  1.00  0.00    -0.051 A 
ATOM      9  C   UNL     1     -22.664  14.367 -28.228  1.00  0.00     0.004 A 
ATOM     10  C   UNL     1     -20.520  13.520 -28.918  1.00  0.00     0.004 A 
ATOM     11  C   UNL     1     -22.051  15.538 -27.768  1.00  0.00     0.011 A 
ATOM     12  C   UNL     1     -19.907  14.691 -28.457  1.00  0.00     0.011 A 
ATOM     13  C   UNL     1     -22.560  12.103 -29.320  1.00  0.00     0.044 C 
ENDBRANCH   3   7
ENDBRANCH   1   2
BRANCH   1  14
ATOM     14  O   UNL     1     -17.906  20.543 -25.945  1.00  0.00    -0.485 OA
BRANCH  14  15
ATOM     15  C   UNL     1     -18.383  21.666 -25.319  1.00  0.00     0.123 A 
ATOM     16  C   UNL     1     -19.619  21.758 -24.668  1.00  0.00     0.050 A 
ATOM     17  C   UNL     1     -17.535  22.784 -25.359  1.00  0.00    -0.009 A 
ATOM     18  C   UNL     1     -20.029  22.952 -24.050  1.00  0.00    -0.042 A 
ATOM     19  C   UNL     1     -17.940  23.976 -24.744  1.00  0.00     0.007 A 
ATOM     20  C   UNL     1     -19.173  24.059 -24.097  1.00  0.00     0.004 A 
ATOM     21  C   UNL     1     -16.200  22.718 -26.050  1.00  0.00     0.048 C 
BRANCH  18  22
ATOM     22  C   UNL     1     -21.377  23.019 -23.352  1.00  0.00     0.013 C 
ATOM     23  C   UNL     1     -21.838  21.635 -22.885  1.00  0.00     0.012 C 
ATOM     24  C   UNL     1     -21.359  24.011 -22.186  1.00  0.00     0.012 C 
ENDBRANCH  18  22
ENDBRANCH  14  15
ENDBRANCH   1  14
TORSDOF 5
ENDMDL
MODEL 4
REMARK VINA RESULT:    -7.412      1.606      2.577
REMARK INTER + INTRA:         -10.188
REMARK INTER:                  -9.403
REMARK INTRA:                  -0.785
REMARK UNBOUND:                -0.609
REMARK SMILES Cc1ccc(-c2cc(COc3cc(C(C)C)ccc3C)on2)cc1
REMARK SMILES IDX 9 1 8 2 6 3 7 4 22 5 21 6 5 7 2 8 3 9 24 10 4 11 23 12 1 13
REMARK SMILES IDX 10 14 11 15 12 16 19 17 13 18 18 19 17 20 20 21 14 22 15 23
REMARK SMILES IDX 16 24
REMARK H PARENT
ROOT
ATOM      1  C   UNL     1     -19.393  18.078 -28.347  1.00  0.00     0.307 C 
ENDROOT
BRANCH   1   2
ATOM      2  C   UNL     1     -19.060  19.223 -27.468  1.00  0.00     0.174 A 
ATOM      3  C   UNL     1     -18.811  20.973 -26.124  1.00  0.00     0.114 A 
ATOM      4  C   UNL     1     -19.782  20.149 -26.756  1.00  0.00     0.081 A 
ATOM      5  N   UNL     1     -17.577  20.548 -26.451  1.00  0.00    -0.079 NA
ATOM      6  O   UNL     1     -17.738  19.463 -27.284  1.00  0.00    -0.357 OA
BRANCH   3   7
ATOM      7  C   UNL     1     -19.023  22.125 -25.239  1.00  0.00     0.004 A 
ATOM      8  C   UNL     1     -19.411  24.348 -23.530  1.00  0.00    -0.051 A 
ATOM      9  C   UNL     1     -18.333  24.316 -24.419  1.00  0.00     0.004 A 
ATOM     10  C   UNL     1     -20.306  23.274 -23.514  1.00  0.00     0.004 A 
ATOM     11  C   UNL     1     -18.140  23.214 -25.259  1.00  0.00     0.011 A 
ATOM     12  C   UNL     1     -20.111  22.172 -24.355  1.00  0.00     0.011 A 
ATOM     13  C   UNL     1     -19.639  25.542 -22.653  1.00  0.00     0.044 C 
ENDBRANCH   3   7
ENDBRANCH   1   2
BRANCH   1  14
ATOM     14  O   UNL     1     -19.259  16.891 -27.568  1.00  0.00    -0.485 OA
BRANCH  14  15
ATOM     15  C   UNL     1     -20.367  16.096 -27.425  1.00  0.00     0.123 A 
ATOM     16  C   UNL     1     -21.036  15.456 -28.475  1.00  0.00     0.050 A 
ATOM     17  C   UNL     1     -20.831  15.941 -26.109  1.00  0.00    -0.009 A 
ATOM     18  C   UNL     1     -22.168  14.657 -28.236  1.00  0.00    -0.042 A 
ATOM     19  C   UNL     1     -21.958  15.145 -25.867  1.00  0.00     0.007 A 
ATOM     20  C   UNL     1     -22.619  14.510 -26.919  1.00  0.00     0.004 A 
ATOM     21  C   UNL     1     -20.134  16.614 -24.959  1.00  0.00     0.048 C 
BRANCH  18  22
ATOM     22  C   UNL     1     -22.872  13.976 -29.398  1.00  0.00     0.013 C 
ATOM     23  C   UNL     1     -22.667  14.742 -30.708  1.00  0.00     0.012 C 
ATOM     24  C   UNL     1     -22.434  12.516 -29.544  1.00  0.00     0.012 C 
ENDBRANCH  18  22
ENDBRANCH  14  15
ENDBRANCH   1  14
TORSDOF 5
ENDMDL
MODEL 5
REMARK VINA RESULT:    -7.398      4.150      6.044
REMARK INTER + INTRA:         -10.169
REMARK INTER:                  -9.222
REMARK INTRA:                  -0.947
REMARK UNBOUND:                -0.609
REMARK SMILES Cc1ccc(-c2cc(COc3cc(C(C)C)ccc3C)on2)cc1
REMARK SMILES IDX 9 1 8 2 6 3 7 4 22 5 21 6 5 7 2 8 3 9 24 10 4 11 23 12 1 13
REMARK SMILES IDX 10 14 11 15 12 16 19 17 13 18 18 19 17 20 20 21 14 22 15 23
REMARK SMILES IDX 16 24
REMARK H PARENT
ROOT
ATOM      1  C   UNL     1     -19.530  17.644 -27.938  1.00  0.00     0.307 C 
ENDROOT
BRANCH   1   2
ATOM      2  C   UNL     1     -20.245  17.303 -26.686  1.00  0.00     0.174 A 
ATOM      3  C   UNL     1     -21.142  16.613 -24.775  1.00  0.00     0.114 A 
ATOM      4  C   UNL     1     -20.073  16.380 -25.684  1.00  0.00     0.081 A 
ATOM      5  N   UNL     1     -21.904  17.627 -25.224  1.00  0.00    -0.079 NA
ATOM      6  O   UNL     1     -21.343  18.051 -26.409  1.00  0.00    -0.357 OA
BRANCH   3   7
ATOM      7  C   UNL     1     -21.448  15.913 -23.521  1.00  0.00     0.004 A 
ATOM      8  C   UNL     1     -22.038  14.547 -21.114  1.00  0.00    -0.051 A 
ATOM      9  C   UNL     1     -21.219  13.958 -22.081  1.00  0.00     0.004 A 
ATOM     10  C   UNL     1     -22.542  15.829 -21.345  1.00  0.00     0.004 A 
ATOM     11  C   UNL     1     -20.933  14.633 -23.273  1.00  0.00     0.011 A 
ATOM     12  C   UNL     1     -22.255  16.503 -22.538  1.00  0.00     0.011 A 
ATOM     13  C   UNL     1     -22.318  13.839 -19.822  1.00  0.00     0.044 C 
ENDBRANCH   3   7
ENDBRANCH   1   2
BRANCH   1  14
ATOM     14  O   UNL     1     -19.484  16.462 -28.736  1.00  0.00    -0.485 OA
BRANCH  14  15
ATOM     15  C   UNL     1     -20.641  16.073 -29.361  1.00  0.00     0.123 A 
ATOM     16  C   UNL     1     -21.513  16.931 -30.044  1.00  0.00     0.050 A 
ATOM     17  C   UNL     1     -20.934  14.701 -29.286  1.00  0.00    -0.009 A 
ATOM     18  C   UNL     1     -22.679  16.444 -30.657  1.00  0.00    -0.042 A 
ATOM     19  C   UNL     1     -22.096  14.212 -29.897  1.00  0.00     0.007 A 
ATOM     20  C   UNL     1     -22.959  15.075 -30.576  1.00  0.00     0.004 A 
ATOM     21  C   UNL     1     -20.018  13.754 -28.562  1.00  0.00     0.048 C 
BRANCH  18  22
ATOM     22  C   UNL     1     -23.605  17.401 -31.390  1.00  0.00     0.013 C 
ATOM     23  C   UNL     1     -22.953  18.773 -31.588  1.00  0.00     0.012 C 
ATOM     24  C   UNL     1     -24.072  16.820 -32.727  1.00  0.00     0.012 C 
ENDBRANCH  18  22
ENDBRANCH  14  15
ENDBRANCH   1  14
TORSDOF 5
ENDMDL
MODEL 6
REMARK VINA RESULT:    -7.338      0.858      2.870
REMARK INTER + INTRA:         -10.092
REMARK INTER:                  -9.426
REMARK INTRA:                  -0.666
REMARK UNBOUND:                -0.609
REMARK SMILES Cc1ccc(-c2cc(COc3cc(C(C)C)ccc3C)on2)cc1
REMARK SMILES IDX 9 1 8 2 6 3 7 4 22 5 21 6 5 7 2 8 3 9 24 10 4 11 23 12 1 13
REMARK SMILES IDX 10 14 11 15 12 16 19 17 13 18 18 19 17 20 20 21 14 22 15 23
REMARK SMILES IDX 16 24
REMARK H PARENT
ROOT
ATOM      1  C   UNL     1     -19.142  17.784 -28.602  1.00  0.00     0.307 C 
ENDROOT
BRANCH   1   2
ATOM      2  C   UNL     1     -19.138  18.749 -27.478  1.00  0.00     0.174 A 
ATOM      3  C   UNL     1     -19.136  20.379 -25.969  1.00  0.00     0.114 A 
ATOM      4  C   UNL     1     -19.149  20.118 -27.366  1.00  0.00     0.081 A 
ATOM      5  N   UNL     1     -19.121  19.215 -25.292  1.00  0.00    -0.079 NA
ATOM      6  O   UNL     1     -19.121  18.209 -26.233  1.00  0.00    -0.357 OA
BRANCH   3   7
ATOM      7  C   UNL     1     -19.140  21.674 -25.278  1.00  0.00     0.004 A 
ATOM      8  C   UNL     1     -19.168  24.172 -23.947  1.00  0.00    -0.051 A 
ATOM      9  C   UNL     1     -20.165  23.225 -23.700  1.00  0.00     0.004 A 
ATOM     10  C   UNL     1     -18.145  23.857 -24.846  1.00  0.00     0.004 A 
ATOM     11  C   UNL     1     -20.153  21.993 -24.362  1.00  0.00     0.011 A 
ATOM     12  C   UNL     1     -18.134  22.623 -25.509  1.00  0.00     0.011 A 
ATOM     13  C   UNL     1     -19.161  25.479 -23.213  1.00  0.00     0.044 C 
ENDBRANCH   3   7
ENDBRANCH   1   2
BRANCH   1  14
ATOM     14  O   UNL     1     -19.875  16.637 -28.174  1.00  0.00    -0.485 OA
BRANCH  14  15
ATOM     15  C   UNL     1     -20.876  16.183 -28.992  1.00  0.00     0.123 A 
ATOM     16  C   UNL     1     -21.730  16.999 -29.746  1.00  0.00     0.050 A 
ATOM     17  C   UNL     1     -21.021  14.787 -29.049  1.00  0.00    -0.009 A 
ATOM     18  C   UNL     1     -22.732  16.445 -30.560  1.00  0.00    -0.042 A 
ATOM     19  C   UNL     1     -22.020  14.232 -29.861  1.00  0.00     0.007 A 
ATOM     20  C   UNL     1     -22.866  15.053 -30.608  1.00  0.00     0.004 A 
ATOM     21  C   UNL     1     -20.121  13.883 -28.253  1.00  0.00     0.048 C 
BRANCH  18  22
ATOM     22  C   UNL     1     -23.643  17.358 -31.365  1.00  0.00     0.013 C 
ATOM     23  C   UNL     1     -23.065  18.772 -31.478  1.00  0.00     0.012 C 
ATOM     24  C   UNL     1     -23.941  16.778 -32.750  1.00  0.00     0.012 C 
ENDBRANCH  18  22
ENDBRANCH  14  15
ENDBRANCH   1  14
TORSDOF 5
ENDMDL
MODEL 7
REMARK VINA RESULT:    -7.316      4.677      6.075
REMARK INTER + INTRA:         -10.064
REMARK INTER:                  -9.202
REMARK INTRA:                  -0.862
REMARK UNBOUND:                -0.609
REMARK SMILES Cc1ccc(-c2cc(COc3cc(C(C)C)ccc3C)on2)cc1
REMARK SMILES IDX 9 1 8 2 6 3 7 4 22 5 21 6 5 7 2 8 3 9 24 10 4 11 23 12 1 13
REMARK SMILES IDX 10 14 11 15 12 16 19 17 13 18 18 19 17 20 20 21 14 22 15 23
REMARK SMILES IDX 16 24
REMARK H PARENT
ROOT
ATOM      1  C   UNL     1     -22.291  13.816 -28.792  1.00  0.00     0.307 C 
ENDROOT
BRANCH   1   2
ATOM      2  C   UNL     1     -21.961  14.203 -27.401  1.00  0.00     0.174 A 
ATOM      3  C   UNL     1     -21.685  14.910 -25.314  1.00  0.00     0.114 A 
ATOM      4  C   UNL     1     -22.569  14.956 -26.427  1.00  0.00     0.081 A 
ATOM      5  N   UNL     1     -20.609  14.162 -25.622  1.00  0.00    -0.079 NA
ATOM      6  O   UNL     1     -20.786  13.727 -26.918  1.00  0.00    -0.357 OA
BRANCH   3   7
ATOM      7  C   UNL     1     -21.835  15.541 -23.997  1.00  0.00     0.004 A 
ATOM      8  C   UNL     1     -22.119  16.778 -21.467  1.00  0.00    -0.051 A 
ATOM      9  C   UNL     1     -22.476  17.459 -22.634  1.00  0.00     0.004 A 
ATOM     10  C   UNL     1     -21.640  15.469 -21.569  1.00  0.00     0.004 A 
ATOM     11  C   UNL     1     -22.330  16.849 -23.884  1.00  0.00     0.011 A 
ATOM     12  C   UNL     1     -21.494  14.859 -22.821  1.00  0.00     0.011 A 
ATOM     13  C   UNL     1     -22.307  17.418 -20.124  1.00  0.00     0.044 C 
ENDBRANCH   3   7
ENDBRANCH   1   2
BRANCH   1  14
ATOM     14  O   UNL     1     -21.373  14.490 -29.651  1.00  0.00    -0.485 OA
BRANCH  14  15
ATOM     15  C   UNL     1     -21.734  15.727 -30.119  1.00  0.00     0.123 A 
ATOM     16  C   UNL     1     -22.803  15.976 -30.989  1.00  0.00     0.050 A 
ATOM     17  C   UNL     1     -20.945  16.797 -29.665  1.00  0.00    -0.009 A 
ATOM     18  C   UNL     1     -23.102  17.280 -31.419  1.00  0.00    -0.042 A 
ATOM     19  C   UNL     1     -21.241  18.099 -30.091  1.00  0.00     0.007 A 
ATOM     20  C   UNL     1     -22.308  18.337 -30.959  1.00  0.00     0.004 A 
ATOM     21  C   UNL     1     -19.791  16.564 -28.730  1.00  0.00     0.048 C 
BRANCH  18  22
ATOM     22  C   UNL     1     -24.269  17.517 -32.364  1.00  0.00     0.013 C 
ATOM     23  C   UNL     1     -25.413  16.534 -32.102  1.00  0.00     0.012 C 
ATOM     24  C   UNL     1     -24.765  18.963 -32.296  1.00  0.00     0.012 C 
ENDBRANCH  18  22
ENDBRANCH  14  15
ENDBRANCH   1  14
TORSDOF 5
ENDMDL
MODEL 8
REMARK VINA RESULT:    -7.168      4.711      6.942
REMARK INTER + INTRA:          -9.872
REMARK INTER:                  -9.149
REMARK INTRA:                  -0.723
REMARK UNBOUND:                -0.609
REMARK SMILES Cc1ccc(-c2cc(COc3cc(C(C)C)ccc3C)on2)cc1
REMARK SMILES IDX 9 1 8 2 6 3 7 4 22 5 21 6 5 7 2 8 3 9 24 10 4 11 23 12 1 13
REMARK SMILES IDX 10 14 11 15 12 16 19 17 13 18 18 19 17 20 20 21 14 22 15 23
REMARK SMILES IDX 16 24
REMARK H PARENT
ROOT
ATOM      1  C   UNL     1     -22.442  15.503 -31.058  1.00  0.00     0.307 C 
ENDROOT
BRANCH   1   2
ATOM      2  C   UNL     1     -22.295  15.131 -29.632  1.00  0.00     0.174 A 
ATOM      3  C   UNL     1     -21.987  14.809 -27.456  1.00  0.00     0.114 A 
ATOM      4  C   UNL     1     -21.856  15.768 -28.497  1.00  0.00     0.081 A 
ATOM      5  N   UNL     1     -22.482  13.662 -27.958  1.00  0.00    -0.079 NA
ATOM      6  O   UNL     1     -22.670  13.868 -29.307  1.00  0.00    -0.357 OA
BRANCH   3   7
ATOM      7  C   UNL     1     -21.662  14.952 -26.032  1.00  0.00     0.004 A 
ATOM      8  C   UNL     1     -21.032  15.208 -23.284  1.00  0.00    -0.051 A 
ATOM      9  C   UNL     1     -20.293  14.352 -24.105  1.00  0.00     0.004 A 
ATOM     10  C   UNL     1     -22.072  15.952 -23.847  1.00  0.00     0.004 A 
ATOM     11  C   UNL     1     -20.609  14.222 -25.461  1.00  0.00     0.011 A 
ATOM     12  C   UNL     1     -22.388  15.821 -25.205  1.00  0.00     0.011 A 
ATOM     13  C   UNL     1     -20.672  15.374 -21.838  1.00  0.00     0.044 C 
ENDBRANCH   3   7
ENDBRANCH   1   2
BRANCH   1  14
ATOM     14  O   UNL     1     -23.648  16.255 -31.179  1.00  0.00    -0.485 OA
BRANCH  14  15
ATOM     15  C   UNL     1     -23.537  17.592 -31.459  1.00  0.00     0.123 A 
ATOM     16  C   UNL     1     -22.407  18.377 -31.193  1.00  0.00     0.050 A 
ATOM     17  C   UNL     1     -24.664  18.179 -32.057  1.00  0.00    -0.009 A 
ATOM     18  C   UNL     1     -22.380  19.745 -31.515  1.00  0.00    -0.042 A 
ATOM     19  C   UNL     1     -24.640  19.542 -32.379  1.00  0.00     0.007 A 
ATOM     20  C   UNL     1     -23.510  20.316 -32.111  1.00  0.00     0.004 A 
ATOM     21  C   UNL     1     -25.892  17.364 -32.357  1.00  0.00     0.048 C 
BRANCH  18  22
ATOM     22  C   UNL     1     -21.139  20.568 -31.213  1.00  0.00     0.013 C 
ATOM     23  C   UNL     1     -20.756  21.463 -32.395  1.00  0.00     0.012 C 
ATOM     24  C   UNL     1     -21.308  21.394 -29.935  1.00  0.00     0.012 C 
ENDBRANCH  18  22
ENDBRANCH  14  15
ENDBRANCH   1  14
TORSDOF 5
ENDMDL
