MODEL 1
REMARK VINA RESULT:    -5.073      0.000      0.000
REMARK INTER + INTRA:          -6.671
REMARK INTER:                  -6.111
REMARK INTRA:                  -0.560
REMARK UNBOUND:                -0.560
REMARK SMILES CC(=O)Oc1ccccc1C(=O)O
REMARK SMILES IDX 5 1 6 2 7 3 8 4 9 5 10 6 4 7 2 8 3 9 1 10 11 11 12 12 13 13
REMARK H PARENT 13 14
ROOT
ATOM      1  C   UNL     1     -21.230  15.432 -29.647  1.00  0.00     0.145 A 
ATOM      2  C   UNL     1     -20.631  14.658 -28.647  1.00  0.00     0.048 A 
ATOM      3  C   UNL     1     -21.162  13.409 -28.329  1.00  0.00     0.004 A 
ATOM      4  C   UNL     1     -22.294  12.944 -28.999  1.00  0.00     0.001 A 
ATOM      5  C   UNL     1     -22.901  13.728 -29.986  1.00  0.00     0.019 A 
ATOM      6  C   UNL     1     -22.379  14.987 -30.318  1.00  0.00     0.102 A 
ENDROOT
BRANCH   1   7
ATOM      7  O   UNL     1     -20.665  16.685 -29.896  1.00  0.00    -0.426 OA
BRANCH   7   8
ATOM      8  C   UNL     1     -20.873  17.582 -28.854  1.00  0.00     0.308 C 
ATOM      9  O   UNL     1     -21.952  17.916 -28.382  1.00  0.00    -0.252 OA
ATOM     10  C   UNL     1     -19.546  18.112 -28.398  1.00  0.00     0.139 C 
ENDBRANCH   7   8
ENDBRANCH   1   7
BRANCH   6  11
ATOM     11  C   UNL     1     -23.036  15.839 -31.344  1.00  0.00     0.339 C 
ATOM     12  O   UNL     1     -24.197  16.202 -31.364  1.00  0.00    -0.246 OA
BRANCH  11  13
ATOM     13  O   UNL     1     -22.192  16.204 -32.329  1.00  0.00    -0.478 OA
ATOM     14  H   UNL     1     -21.305  16.107 -31.924  1.00  0.00     0.297 HD
ENDBRANCH  11  13
ENDBRANCH   6  11
TORSDOF 4
ENDMDL
MODEL 2
REMARK VINA RESULT:    -5.060      6.679      8.087
REMARK INTER + INTRA:          -6.656
REMARK INTER:                  -6.011
REMARK INTRA:                  -0.645
REMARK UNBOUND:                -0.560
REMARK SMILES CC(=O)Oc1ccccc1C(=O)O
REMARK SMILES IDX 5 1 6 2 7 3 8 4 9 5 10 6 4 7 2 8 3 9 1 10 11 11 12 12 13 13
REMARK H PARENT 13 14
ROOT
ATOM      1  C   UNL     1     -21.368  15.345 -22.721  1.00  0.00     0.145 A 
ATOM      2  C   UNL     1     -22.219  16.250 -23.364  1.00  0.00     0.048 A 
ATOM      3  C   UNL     1     -22.291  16.261 -24.756  1.00  0.00     0.004 A 
ATOM      4  C   UNL     1     -21.506  15.381 -25.500  1.00  0.00     0.001 A 
ATOM      5  C   UNL     1     -20.642  14.490 -24.855  1.00  0.00     0.019 A 
ATOM      6  C   UNL     1     -20.557  14.466 -23.454  1.00  0.00     0.102 A 
ENDROOT
BRANCH   1   7
ATOM      7  O   UNL     1     -21.322  15.406 -21.326  1.00  0.00    -0.426 OA
BRANCH   7   8
ATOM      8  C   UNL     1     -22.372  14.719 -20.726  1.00  0.00     0.308 C 
ATOM      9  O   UNL     1     -22.623  13.526 -20.838  1.00  0.00    -0.252 OA
ATOM     10  C   UNL     1     -23.187  15.686 -19.921  1.00  0.00     0.139 C 
ENDBRANCH   7   8
ENDBRANCH   1   7
BRANCH   6  11
ATOM     11  C   UNL     1     -19.620  13.542 -22.763  1.00  0.00     0.339 C 
ATOM     12  O   UNL     1     -18.416  13.673 -22.639  1.00  0.00    -0.246 OA
BRANCH  11  13
ATOM     13  O   UNL     1     -20.244  12.465 -22.247  1.00  0.00    -0.478 OA
ATOM     14  H   UNL     1     -21.174  12.574 -22.534  1.00  0.00     0.297 HD
ENDBRANCH  11  13
ENDBRANCH   6  11
TORSDOF 4
ENDMDL
MODEL 3
REMARK VINA RESULT:    -5.046      5.689      8.999
REMARK INTER + INTRA:          -6.639
REMARK INTER:                  -5.940
REMARK INTRA:                  -0.699
REMARK UNBOUND:                -0.560
REMARK SMILES CC(=O)Oc1ccccc1C(=O)O
REMARK SMILES IDX 5 1 6 2 7 3 8 4 9 5 10 6 4 7 2 8 3 9 1 10 11 11 12 12 13 13
REMARK H PARENT 13 14
ROOT
ATOM      1  C   UNL     1     -18.679  21.442 -25.368  1.00  0.00     0.145 A 
ATOM      2  C   UNL     1     -19.905  21.412 -24.695  1.00  0.00     0.048 A 
ATOM      3  C   UNL     1     -20.355  22.550 -24.028  1.00  0.00     0.004 A 
ATOM      4  C   UNL     1     -19.576  23.707 -24.024  1.00  0.00     0.001 A 
ATOM      5  C   UNL     1     -18.342  23.729 -24.683  1.00  0.00     0.019 A 
ATOM      6  C   UNL     1     -17.875  22.591 -25.359  1.00  0.00     0.102 A 
ENDROOT
BRANCH   1   7
ATOM      7  O   UNL     1     -18.275  20.259 -25.992  1.00  0.00    -0.426 OA
BRANCH   7   8
ATOM      8  C   UNL     1     -18.949  20.026 -27.186  1.00  0.00     0.308 C 
ATOM      9  O   UNL     1     -19.168  20.841 -28.072  1.00  0.00    -0.252 OA
ATOM     10  C   UNL     1     -19.402  18.597 -27.216  1.00  0.00     0.139 C 
ENDBRANCH   7   8
ENDBRANCH   1   7
BRANCH   6  11
ATOM     11  C   UNL     1     -16.551  22.597 -26.036  1.00  0.00     0.339 C 
ATOM     12  O   UNL     1     -15.455  22.621 -25.507  1.00  0.00    -0.246 OA
BRANCH  11  13
ATOM     13  O   UNL     1     -16.659  22.576 -27.379  1.00  0.00    -0.478 OA
ATOM     14  H   UNL     1     -15.739  22.711 -27.688  1.00  0.00     0.297 HD
ENDBRANCH  11  13
ENDBRANCH   6  11
TORSDOF 4
ENDMDL
MODEL 4
REMARK VINA RESULT:    -5.001      1.722      3.480
REMARK INTER + INTRA:          -6.584
REMARK INTER:                  -6.344
REMARK INTRA:                  -0.240
REMARK UNBOUND:                -0.560
REMARK SMILES CC(=O)Oc1ccccc1C(=O)O
REMARK SMILES IDX 5 1 6 2 7 3 8 4 9 5 10 6 4 7 2 8 3 9 1 10 11 11 12 12 13 13
REMARK H PARENT 13 14
ROOT
ATOM      1  C   UNL     1     -20.703  15.655 -29.295  1.00  0.00     0.145 A 
ATOM      2  C   UNL     1     -19.741  16.271 -28.487  1.00  0.00     0.048 A 
ATOM      3  C   UNL     1     -19.638  17.661 -28.474  1.00  0.00     0.004 A 
ATOM      4  C   UNL     1     -20.483  18.429 -29.275  1.00  0.00     0.001 A 
ATOM      5  C   UNL     1     -21.431  17.809 -30.096  1.00  0.00     0.019 A 
ATOM      6  C   UNL     1     -21.548  16.410 -30.121  1.00  0.00     0.102 A 
ENDROOT
BRANCH   1   7
ATOM      7  O   UNL     1     -20.734  14.258 -29.282  1.00  0.00    -0.426 OA
BRANCH   7   8
ATOM      8  C   UNL     1     -20.917  13.739 -28.005  1.00  0.00     0.308 C 
ATOM      9  O   UNL     1     -20.054  13.266 -27.277  1.00  0.00    -0.252 OA
ATOM     10  C   UNL     1     -22.372  13.823 -27.651  1.00  0.00     0.139 C 
ENDBRANCH   7   8
ENDBRANCH   1   7
BRANCH   6  11
ATOM     11  C   UNL     1     -22.533  15.743 -31.012  1.00  0.00     0.339 C 
ATOM     12  O   UNL     1     -23.429  14.989 -30.683  1.00  0.00    -0.246 OA
BRANCH  11  13
ATOM     13  O   UNL     1     -22.347  16.053 -32.310  1.00  0.00    -0.478 OA
ATOM     14  H   UNL     1     -21.936  15.247 -32.686  1.00  0.00     0.297 HD
ENDBRANCH  11  13
ENDBRANCH   6  11
TORSDOF 4
ENDMDL
MODEL 5
REMARK VINA RESULT:    -4.939      2.923      3.850
REMARK INTER + INTRA:          -6.509
REMARK INTER:                  -5.851
REMARK INTRA:                  -0.658
REMARK UNBOUND:                -0.560
REMARK SMILES CC(=O)Oc1ccccc1C(=O)O
REMARK SMILES IDX 5 1 6 2 7 3 8 4 9 5 10 6 4 7 2 8 3 9 1 10 11 11 12 12 13 13
REMARK H PARENT 13 14
ROOT
ATOM      1  C   UNL     1     -20.792  14.955 -27.910  1.00  0.00     0.145 A 
ATOM      2  C   UNL     1     -20.199  16.222 -27.937  1.00  0.00     0.048 A 
ATOM      3  C   UNL     1     -20.469  17.088 -28.995  1.00  0.00     0.004 A 
ATOM      4  C   UNL     1     -21.317  16.684 -30.026  1.00  0.00     0.001 A 
ATOM      5  C   UNL     1     -21.895  15.410 -30.005  1.00  0.00     0.019 A 
ATOM      6  C   UNL     1     -21.633  14.525 -28.947  1.00  0.00     0.102 A 
ENDROOT
BRANCH   1   7
ATOM      7  O   UNL     1     -20.457  14.126 -26.836  1.00  0.00    -0.426 OA
BRANCH   7   8
ATOM      8  C   UNL     1     -21.063  14.520 -25.648  1.00  0.00     0.308 C 
ATOM      9  O   UNL     1     -22.218  14.898 -25.507  1.00  0.00    -0.252 OA
ATOM     10  C   UNL     1     -20.057  14.433 -24.539  1.00  0.00     0.139 C 
ENDBRANCH   7   8
ENDBRANCH   1   7
BRANCH   6  11
ATOM     11  C   UNL     1     -22.220  13.159 -28.933  1.00  0.00     0.339 C 
ATOM     12  O   UNL     1     -22.089  12.295 -29.779  1.00  0.00    -0.246 OA
BRANCH  11  13
ATOM     13  O   UNL     1     -22.967  12.930 -27.835  1.00  0.00    -0.478 OA
ATOM     14  H   UNL     1     -22.829  11.977 -27.654  1.00  0.00     0.297 HD
ENDBRANCH  11  13
ENDBRANCH   6  11
TORSDOF 4
ENDMDL
MODEL 6
REMARK VINA RESULT:    -4.857      3.088      5.270
REMARK INTER + INTRA:          -6.410
REMARK INTER:                  -5.987
REMARK INTRA:                  -0.423
REMARK UNBOUND:                -0.560
REMARK SMILES CC(=O)Oc1ccccc1C(=O)O
REMARK SMILES IDX 5 1 6 2 7 3 8 4 9 5 10 6 4 7 2 8 3 9 1 10 11 11 12 12 13 13
REMARK H PARENT 13 14
ROOT
ATOM      1  C   UNL     1     -20.286  14.980 -27.506  1.00  0.00     0.145 A 
ATOM      2  C   UNL     1     -19.890  15.676 -28.653  1.00  0.00     0.048 A 
ATOM      3  C   UNL     1     -19.649  17.047 -28.581  1.00  0.00     0.004 A 
ATOM      4  C   UNL     1     -19.815  17.719 -27.370  1.00  0.00     0.001 A 
ATOM      5  C   UNL     1     -20.229  17.024 -26.229  1.00  0.00     0.019 A 
ATOM      6  C   UNL     1     -20.476  15.644 -26.285  1.00  0.00     0.102 A 
ENDROOT
BRANCH   1   7
ATOM      7  O   UNL     1     -20.539  13.614 -27.654  1.00  0.00    -0.426 OA
BRANCH   7   8
ATOM      8  C   UNL     1     -21.814  13.357 -28.146  1.00  0.00     0.308 C 
ATOM      9  O   UNL     1     -22.868  13.458 -27.532  1.00  0.00    -0.252 OA
ATOM     10  C   UNL     1     -21.702  12.901 -29.570  1.00  0.00     0.139 C 
ENDBRANCH   7   8
ENDBRANCH   1   7
BRANCH   6  11
ATOM     11  C   UNL     1     -20.945  14.904 -25.083  1.00  0.00     0.339 C 
ATOM     12  O   UNL     1     -21.882  15.192 -24.362  1.00  0.00    -0.246 OA
BRANCH  11  13
ATOM     13  O   UNL     1     -20.199  13.811 -24.827  1.00  0.00    -0.478 OA
ATOM     14  H   UNL     1     -20.258  13.712 -23.854  1.00  0.00     0.297 HD
ENDBRANCH  11  13
ENDBRANCH   6  11
TORSDOF 4
ENDMDL
MODEL 7
REMARK VINA RESULT:    -4.813      2.018      3.229
REMARK INTER + INTRA:          -6.357
REMARK INTER:                  -5.829
REMARK INTRA:                  -0.528
REMARK UNBOUND:                -0.560
REMARK SMILES CC(=O)Oc1ccccc1C(=O)O
REMARK SMILES IDX 5 1 6 2 7 3 8 4 9 5 10 6 4 7 2 8 3 9 1 10 11 11 12 12 13 13
REMARK H PARENT 13 14
ROOT
ATOM      1  C   UNL     1     -20.858  14.699 -28.069  1.00  0.00     0.145 A 
ATOM      2  C   UNL     1     -21.624  13.532 -27.974  1.00  0.00     0.048 A 
ATOM      3  C   UNL     1     -22.551  13.232 -28.971  1.00  0.00     0.004 A 
ATOM      4  C   UNL     1     -22.720  14.102 -30.049  1.00  0.00     0.001 A 
ATOM      5  C   UNL     1     -21.966  15.277 -30.131  1.00  0.00     0.019 A 
ATOM      6  C   UNL     1     -21.028  15.594 -29.135  1.00  0.00     0.102 A 
ENDROOT
BRANCH   1   7
ATOM      7  O   UNL     1     -19.969  14.955 -27.022  1.00  0.00    -0.426 OA
BRANCH   7   8
ATOM      8  C   UNL     1     -20.613  15.383 -25.866  1.00  0.00     0.308 C 
ATOM      9  O   UNL     1     -21.334  16.365 -25.752  1.00  0.00    -0.252 OA
ATOM     10  C   UNL     1     -20.263  14.452 -24.743  1.00  0.00     0.139 C 
ENDBRANCH   7   8
ENDBRANCH   1   7
BRANCH   6  11
ATOM     11  C   UNL     1     -20.245  16.856 -29.201  1.00  0.00     0.339 C 
ATOM     12  O   UNL     1     -20.652  17.958 -29.515  1.00  0.00    -0.246 OA
BRANCH  11  13
ATOM     13  O   UNL     1     -18.952  16.678 -28.865  1.00  0.00    -0.478 OA
ATOM     14  H   UNL     1     -18.907  15.736 -28.599  1.00  0.00     0.297 HD
ENDBRANCH  11  13
ENDBRANCH   6  11
TORSDOF 4
ENDMDL
MODEL 8
REMARK VINA RESULT:    -4.752      2.455      4.458
REMARK INTER + INTRA:          -6.284
REMARK INTER:                  -5.573
REMARK INTRA:                  -0.711
REMARK UNBOUND:                -0.560
REMARK SMILES CC(=O)Oc1ccccc1C(=O)O
REMARK SMILES IDX 5 1 6 2 7 3 8 4 9 5 10 6 4 7 2 8 3 9 1 10 11 11 12 12 13 13
REMARK H PARENT 13 14
ROOT
ATOM      1  C   UNL     1     -21.329  15.350 -27.367  1.00  0.00     0.145 A 
ATOM      2  C   UNL     1     -21.837  14.576 -26.318  1.00  0.00     0.048 A 
ATOM      3  C   UNL     1     -21.532  14.913 -25.001  1.00  0.00     0.004 A 
ATOM      4  C   UNL     1     -20.713  16.010 -24.735  1.00  0.00     0.001 A 
ATOM      5  C   UNL     1     -20.191  16.771 -25.787  1.00  0.00     0.019 A 
ATOM      6  C   UNL     1     -20.488  16.445 -27.119  1.00  0.00     0.102 A 
ENDROOT
BRANCH   1   7
ATOM      7  O   UNL     1     -21.649  14.940 -28.664  1.00  0.00    -0.426 OA
BRANCH   7   8
ATOM      8  C   UNL     1     -21.032  13.744 -29.015  1.00  0.00     0.308 C 
ATOM      9  O   UNL     1     -19.829  13.522 -29.039  1.00  0.00    -0.252 OA
ATOM     10  C   UNL     1     -22.087  12.747 -29.393  1.00  0.00     0.139 C 
ENDBRANCH   7   8
ENDBRANCH   1   7
BRANCH   6  11
ATOM     11  C   UNL     1     -19.914  17.231 -28.243  1.00  0.00     0.339 C 
ATOM     12  O   UNL     1     -20.187  18.375 -28.554  1.00  0.00    -0.246 OA
BRANCH  11  13
ATOM     13  O   UNL     1     -19.003  16.533 -28.949  1.00  0.00    -0.478 OA
ATOM     14  H   UNL     1     -19.534  16.094 -29.645  1.00  0.00     0.297 HD
ENDBRANCH  11  13
ENDBRANCH   6  11
TORSDOF 4
ENDMDL
