MODEL 1
REMARK VINA RESULT:    -7.493      0.000      0.000
REMARK INTER + INTRA:         -10.267
REMARK INTER:                  -9.683
REMARK INTRA:                  -0.584
REMARK UNBOUND:                -0.584
REMARK SMILES Cc1ccc(C(C)C)cc1OCc1cc(-c2ccccc2)no1
REMARK SMILES IDX 11 1 10 2 2 3 3 4 4 5 9 6 5 7 1 8 6 9 7 10 8 11 12 12 13 13
REMARK SMILES IDX 14 14 23 15 15 16 22 17 16 18 17 19 21 20 18 21 20 22 19 23
REMARK H PARENT
ROOT
ATOM      1  O   UNL     1     -20.275  18.409 -29.132  1.00  0.00    -0.485 OA
ENDROOT
BRANCH   1   2
ATOM      2  C   UNL     1     -20.971  17.321 -29.595  1.00  0.00     0.123 A 
ATOM      3  C   UNL     1     -21.931  17.590 -30.585  1.00  0.00    -0.009 A 
ATOM      4  C   UNL     1     -22.675  16.531 -31.125  1.00  0.00     0.007 A 
ATOM      5  C   UNL     1     -22.460  15.221 -30.696  1.00  0.00     0.004 A 
ATOM      6  C   UNL     1     -20.754  16.002 -29.181  1.00  0.00     0.050 A 
ATOM      7  C   UNL     1     -21.495  14.938 -29.723  1.00  0.00    -0.042 A 
ATOM      8  C   UNL     1     -22.173  18.993 -31.066  1.00  0.00     0.048 C 
BRANCH   7   9
ATOM      9  C   UNL     1     -21.264  13.502 -29.285  1.00  0.00     0.013 C 
ATOM     10  C   UNL     1     -20.589  13.437 -27.911  1.00  0.00     0.012 C 
ATOM     11  C   UNL     1     -22.562  12.693 -29.295  1.00  0.00     0.012 C 
ENDBRANCH   7   9
ENDBRANCH   1   2
BRANCH   1  12
ATOM     12  C   UNL     1     -19.130  18.180 -28.305  1.00  0.00     0.307 C 
BRANCH  12  13
ATOM     13  C   UNL     1     -19.141  19.141 -27.180  1.00  0.00     0.174 A 
ATOM     14  C   UNL     1     -19.225  20.507 -27.068  1.00  0.00     0.081 A 
ATOM     15  O   UNL     1     -19.044  18.605 -25.937  1.00  0.00    -0.357 OA
ATOM     16  C   UNL     1     -19.160  20.772 -25.674  1.00  0.00     0.114 A 
ATOM     17  N   UNL     1     -19.057  19.614 -24.998  1.00  0.00    -0.079 NA
BRANCH  16  18
ATOM     18  C   UNL     1     -19.195  22.068 -24.987  1.00  0.00     0.004 A 
ATOM     19  C   UNL     1     -20.226  22.368 -24.080  1.00  0.00     0.010 A 
ATOM     20  C   UNL     1     -18.206  23.036 -25.214  1.00  0.00     0.010 A 
ATOM     21  C   UNL     1     -20.266  23.601 -23.423  1.00  0.00     0.001 A 
ATOM     22  C   UNL     1     -18.248  24.270 -24.556  1.00  0.00     0.001 A 
ATOM     23  C   UNL     1     -19.278  24.552 -23.662  1.00  0.00     0.000 A 
ENDBRANCH  16  18
ENDBRANCH  12  13
ENDBRANCH   1  12
TORSDOF 5
ENDMDL
MODEL 2
REMARK VINA RESULT:    -7.394      2.515      3.940
REMARK INTER + INTRA:         -10.139
REMARK INTER:                  -9.219
REMARK INTRA:                  -0.920
REMARK UNBOUND:                -0.584
REMARK SMILES Cc1ccc(C(C)C)cc1OCc1cc(-c2ccccc2)no1
REMARK SMILES IDX 11 1 10 2 2 3 3 4 4 5 9 6 5 7 1 8 6 9 7 10 8 11 12 12 13 13
REMARK SMILES IDX 14 14 23 15 15 16 22 17 16 18 17 19 21 20 18 21 20 22 19 23
REMARK H PARENT
ROOT
ATOM      1  O   UNL     1     -23.128  16.656 -25.254  1.00  0.00    -0.485 OA
ENDROOT
BRANCH   1   2
ATOM      2  C   UNL     1     -22.340  15.741 -25.904  1.00  0.00     0.123 A 
ATOM      3  C   UNL     1     -21.340  15.136 -25.124  1.00  0.00    -0.009 A 
ATOM      4  C   UNL     1     -20.502  14.176 -25.707  1.00  0.00     0.007 A 
ATOM      5  C   UNL     1     -20.662  13.812 -27.045  1.00  0.00     0.004 A 
ATOM      6  C   UNL     1     -22.501  15.359 -27.241  1.00  0.00     0.050 A 
ATOM      7  C   UNL     1     -21.664  14.394 -27.828  1.00  0.00    -0.042 A 
ATOM      8  C   UNL     1     -21.156  15.508 -23.679  1.00  0.00     0.048 C 
BRANCH   7   9
ATOM      9  C   UNL     1     -21.833  13.970 -29.277  1.00  0.00     0.013 C 
ATOM     10  C   UNL     1     -22.535  12.613 -29.385  1.00  0.00     0.012 C 
ATOM     11  C   UNL     1     -22.569  15.033 -30.094  1.00  0.00     0.012 C 
ENDBRANCH   7   9
ENDBRANCH   1   2
BRANCH   1  12
ATOM     12  C   UNL     1     -23.297  17.948 -25.845  1.00  0.00     0.307 C 
BRANCH  12  13
ATOM     13  C   UNL     1     -22.081  18.756 -25.608  1.00  0.00     0.174 A 
ATOM     14  C   UNL     1     -21.194  19.437 -26.404  1.00  0.00     0.081 A 
ATOM     15  O   UNL     1     -21.698  18.889 -24.313  1.00  0.00    -0.357 OA
ATOM     16  C   UNL     1     -20.235  19.985 -25.511  1.00  0.00     0.114 A 
ATOM     17  N   UNL     1     -20.552  19.652 -24.247  1.00  0.00    -0.079 NA
BRANCH  16  18
ATOM     18  C   UNL     1     -19.056  20.799 -25.823  1.00  0.00     0.004 A 
ATOM     19  C   UNL     1     -18.091  20.339 -26.736  1.00  0.00     0.010 A 
ATOM     20  C   UNL     1     -18.859  22.053 -25.226  1.00  0.00     0.010 A 
ATOM     21  C   UNL     1     -16.964  21.108 -27.038  1.00  0.00     0.001 A 
ATOM     22  C   UNL     1     -17.731  22.822 -25.528  1.00  0.00     0.001 A 
ATOM     23  C   UNL     1     -16.784  22.349 -26.433  1.00  0.00     0.000 A 
ENDBRANCH  16  18
ENDBRANCH  12  13
ENDBRANCH   1  12
TORSDOF 5
ENDMDL
MODEL 3
REMARK VINA RESULT:    -7.310      2.123      2.975
REMARK INTER + INTRA:         -10.030
REMARK INTER:                  -9.377
REMARK INTRA:                  -0.654
REMARK UNBOUND:                -0.584
REMARK SMILES Cc1ccc(C(C)C)cc1OCc1cc(-c2ccccc2)no1
REMARK SMILES IDX 11 1 10 2 2 3 3 4 4 5 9 6 5 7 1 8 6 9 7 10 8 11 12 12 13 13
REMARK SMILES IDX 14 14 23 15 15 16 22 17 16 18 17 19 21 20 18 21 20 22 19 23
REMARK H PARENT
ROOT
ATOM      1  O   UNL     1     -21.579  17.967 -30.161  1.00  0.00    -0.485 OA
ENDROOT
BRANCH   1   2
ATOM      2  C   UNL     1     -21.917  16.704 -29.747  1.00  0.00     0.123 A 
ATOM      3  C   UNL     1     -22.569  15.905 -30.701  1.00  0.00    -0.009 A 
ATOM      4  C   UNL     1     -22.933  14.594 -30.365  1.00  0.00     0.007 A 
ATOM      5  C   UNL     1     -22.644  14.078 -29.102  1.00  0.00     0.004 A 
ATOM      6  C   UNL     1     -21.619  16.172 -28.487  1.00  0.00     0.050 A 
ATOM      7  C   UNL     1     -21.980  14.857 -28.148  1.00  0.00    -0.042 A 
ATOM      8  C   UNL     1     -22.885  16.440 -32.071  1.00  0.00     0.048 C 
BRANCH   7   9
ATOM      9  C   UNL     1     -21.656  14.269 -26.786  1.00  0.00     0.013 C 
ATOM     10  C   UNL     1     -20.184  13.860 -26.686  1.00  0.00     0.012 C 
ATOM     11  C   UNL     1     -22.035  15.226 -25.654  1.00  0.00     0.012 C 
ENDBRANCH   7   9
ENDBRANCH   1   2
BRANCH   1  12
ATOM     12  C   UNL     1     -22.192  19.082 -29.506  1.00  0.00     0.307 C 
BRANCH  12  13
ATOM     13  C   UNL     1     -21.139  20.002 -29.022  1.00  0.00     0.174 A 
ATOM     14  C   UNL     1     -20.362  20.085 -27.893  1.00  0.00     0.081 A 
ATOM     15  O   UNL     1     -20.825  21.034 -29.846  1.00  0.00    -0.357 OA
ATOM     16  C   UNL     1     -19.560  21.244 -28.075  1.00  0.00     0.114 A 
ATOM     17  N   UNL     1     -19.844  21.807 -29.263  1.00  0.00    -0.079 NA
BRANCH  16  18
ATOM     18  C   UNL     1     -18.555  21.811 -27.171  1.00  0.00     0.004 A 
ATOM     19  C   UNL     1     -17.184  21.659 -27.440  1.00  0.00     0.010 A 
ATOM     20  C   UNL     1     -18.932  22.519 -26.020  1.00  0.00     0.010 A 
ATOM     21  C   UNL     1     -16.221  22.196 -26.582  1.00  0.00     0.001 A 
ATOM     22  C   UNL     1     -17.967  23.056 -25.161  1.00  0.00     0.001 A 
ATOM     23  C   UNL     1     -16.613  22.893 -25.442  1.00  0.00     0.000 A 
ENDBRANCH  16  18
ENDBRANCH  12  13
ENDBRANCH   1  12
TORSDOF 5
ENDMDL
MODEL 4
REMARK VINA RESULT:    -7.267      3.821      5.659
REMARK INTER + INTRA:          -9.975
REMARK INTER:                  -9.057
REMARK INTRA:                  -0.918
REMARK UNBOUND:                -0.584
REMARK SMILES Cc1ccc(C(C)C)cc1OCc1cc(-c2ccccc2)no1
REMARK SMILES IDX 11 1 10 2 2 3 3 4 4 5 9 6 5 7 1 8 6 9 7 10 8 11 12 12 13 13
REMARK SMILES IDX 14 14 23 15 15 16 22 17 16 18 17 19 21 20 18 21 20 22 19 23
REMARK H PARENT
ROOT
ATOM      1  O   UNL     1     -19.471  16.540 -28.842  1.00  0.00    -0.485 OA
ENDROOT
BRANCH   1   2
ATOM      2  C   UNL     1     -20.609  16.028 -29.411  1.00  0.00     0.123 A 
ATOM      3  C   UNL     1     -20.804  14.646 -29.245  1.00  0.00    -0.009 A 
ATOM      4  C   UNL     1     -21.952  14.046 -29.780  1.00  0.00     0.007 A 
ATOM      5  C   UNL     1     -22.900  14.808 -30.462  1.00  0.00     0.004 A 
ATOM      6  C   UNL     1     -21.573  16.786 -30.085  1.00  0.00     0.050 A 
ATOM      7  C   UNL     1     -22.727  16.188 -30.620  1.00  0.00    -0.042 A 
ATOM      8  C   UNL     1     -19.798  13.807 -28.507  1.00  0.00     0.048 C 
BRANCH   7   9
ATOM      9  C   UNL     1     -23.781  17.003 -31.350  1.00  0.00     0.013 C 
ATOM     10  C   UNL     1     -23.837  18.442 -30.829  1.00  0.00     0.012 C 
ATOM     11  C   UNL     1     -23.565  16.978 -32.864  1.00  0.00     0.012 C 
ENDBRANCH   7   9
ENDBRANCH   1   2
BRANCH   1  12
ATOM     12  C   UNL     1     -19.598  17.658 -27.958  1.00  0.00     0.307 C 
BRANCH  12  13
ATOM     13  C   UNL     1     -20.277  17.225 -26.717  1.00  0.00     0.174 A 
ATOM     14  C   UNL     1     -19.998  16.325 -25.718  1.00  0.00     0.081 A 
ATOM     15  O   UNL     1     -21.467  17.821 -26.450  1.00  0.00    -0.357 OA
ATOM     16  C   UNL     1     -21.103  16.401 -24.828  1.00  0.00     0.114 A 
ATOM     17  N   UNL     1     -21.983  17.313 -25.277  1.00  0.00    -0.079 NA
BRANCH  16  18
ATOM     18  C   UNL     1     -21.333  15.647 -23.592  1.00  0.00     0.004 A 
ATOM     19  C   UNL     1     -22.163  16.165 -22.583  1.00  0.00     0.010 A 
ATOM     20  C   UNL     1     -20.738  14.394 -23.384  1.00  0.00     0.010 A 
ATOM     21  C   UNL     1     -22.387  15.453 -21.401  1.00  0.00     0.001 A 
ATOM     22  C   UNL     1     -20.962  13.682 -22.201  1.00  0.00     0.001 A 
ATOM     23  C   UNL     1     -21.785  14.212 -21.210  1.00  0.00     0.000 A 
ENDBRANCH  16  18
ENDBRANCH  12  13
ENDBRANCH   1  12
TORSDOF 5
ENDMDL
MODEL 5
REMARK VINA RESULT:    -7.262      4.493      6.046
REMARK INTER + INTRA:          -9.969
REMARK INTER:                  -9.139
REMARK INTRA:                  -0.830
REMARK UNBOUND:                -0.584
REMARK SMILES Cc1ccc(C(C)C)cc1OCc1cc(-c2ccccc2)no1
REMARK SMILES IDX 11 1 10 2 2 3 3 4 4 5 9 6 5 7 1 8 6 9 7 10 8 11 12 12 13 13
REMARK SMILES IDX 14 14 23 15 15 16 22 17 16 18 17 19 21 20 18 21 20 22 19 23
REMARK H PARENT
ROOT
ATOM      1  O   UNL     1     -21.371  14.625 -29.695  1.00  0.00    -0.485 OA
ENDROOT
BRANCH   1   2
ATOM      2  C   UNL     1     -21.769  15.860 -30.141  1.00  0.00     0.123 A 
ATOM      3  C   UNL     1     -21.002  16.947 -29.688  1.00  0.00    -0.009 A 
ATOM      4  C   UNL     1     -21.330  18.242 -30.112  1.00  0.00     0.007 A 
ATOM      5  C   UNL     1     -22.400  18.456 -30.981  1.00  0.00     0.004 A 
ATOM      6  C   UNL     1     -22.832  16.083 -31.023  1.00  0.00     0.050 A 
ATOM      7  C   UNL     1     -23.162  17.381 -31.452  1.00  0.00    -0.042 A 
ATOM      8  C   UNL     1     -19.841  16.738 -28.757  1.00  0.00     0.048 C 
BRANCH   7   9
ATOM      9  C   UNL     1     -24.310  17.633 -32.414  1.00  0.00     0.013 C 
ATOM     10  C   UNL     1     -25.468  16.660 -32.173  1.00  0.00     0.012 C 
ATOM     11  C   UNL     1     -24.793  19.084 -32.348  1.00  0.00     0.012 C 
ENDBRANCH   7   9
ENDBRANCH   1   2
BRANCH   1  12
ATOM     12  C   UNL     1     -22.242  13.909 -28.815  1.00  0.00     0.307 C 
BRANCH  12  13
ATOM     13  C   UNL     1     -21.848  14.175 -27.414  1.00  0.00     0.174 A 
ATOM     14  C   UNL     1     -22.442  14.781 -26.334  1.00  0.00     0.081 A 
ATOM     15  O   UNL     1     -20.613  13.747 -27.051  1.00  0.00    -0.357 OA
ATOM     16  C   UNL     1     -21.483  14.705 -25.289  1.00  0.00     0.114 A 
ATOM     17  N   UNL     1     -20.381  14.072 -25.732  1.00  0.00    -0.079 NA
BRANCH  16  18
ATOM     18  C   UNL     1     -21.588  15.206 -23.915  1.00  0.00     0.004 A 
ATOM     19  C   UNL     1     -22.098  16.490 -23.659  1.00  0.00     0.010 A 
ATOM     20  C   UNL     1     -21.187  14.421 -22.824  1.00  0.00     0.010 A 
ATOM     21  C   UNL     1     -22.200  16.974 -22.352  1.00  0.00     0.001 A 
ATOM     22  C   UNL     1     -21.289  14.906 -21.516  1.00  0.00     0.001 A 
ATOM     23  C   UNL     1     -21.794  16.183 -21.281  1.00  0.00     0.000 A 
ENDBRANCH  16  18
ENDBRANCH  12  13
ENDBRANCH   1  12
TORSDOF 5
ENDMDL
MODEL 6
REMARK VINA RESULT:    -7.204      1.028      2.861
REMARK INTER + INTRA:          -9.894
REMARK INTER:                  -9.262
REMARK INTRA:                  -0.631
REMARK UNBOUND:                -0.584
REMARK SMILES Cc1ccc(C(C)C)cc1OCc1cc(-c2ccccc2)no1
REMARK SMILES IDX 11 1 10 2 2 3 3 4 4 5 9 6 5 7 1 8 6 9 7 10 8 11 12 12 13 13
REMARK SMILES IDX 14 14 23 15 15 16 22 17 16 18 17 19 21 20 18 21 20 22 19 23
REMARK H PARENT
ROOT
ATOM      1  O   UNL     1     -20.183  16.474 -28.209  1.00  0.00    -0.485 OA
ENDROOT
BRANCH   1   2
ATOM      2  C   UNL     1     -21.135  16.093 -29.120  1.00  0.00     0.123 A 
ATOM      3  C   UNL     1     -21.315  14.708 -29.268  1.00  0.00    -0.009 A 
ATOM      4  C   UNL     1     -22.281  14.234 -30.167  1.00  0.00     0.007 A 
ATOM      5  C   UNL     1     -23.065  15.124 -30.902  1.00  0.00     0.004 A 
ATOM      6  C   UNL     1     -21.936  16.978 -29.852  1.00  0.00     0.050 A 
ATOM      7  C   UNL     1     -22.907  16.506 -30.751  1.00  0.00    -0.042 A 
ATOM      8  C   UNL     1     -20.485  13.732 -28.481  1.00  0.00     0.048 C 
BRANCH   7   9
ATOM      9  C   UNL     1     -23.785  17.457 -31.546  1.00  0.00     0.013 C 
ATOM     10  C   UNL     1     -23.211  18.877 -31.553  1.00  0.00     0.012 C 
ATOM     11  C   UNL     1     -24.016  16.954 -32.972  1.00  0.00     0.012 C 
ENDBRANCH   7   9
ENDBRANCH   1   2
BRANCH   1  12
ATOM     12  C   UNL     1     -19.249  17.490 -28.587  1.00  0.00     0.307 C 
BRANCH  12  13
ATOM     13  C   UNL     1     -19.175  18.508 -27.516  1.00  0.00     0.174 A 
ATOM     14  C   UNL     1     -18.993  19.868 -27.476  1.00  0.00     0.081 A 
ATOM     15  O   UNL     1     -19.307  18.047 -26.246  1.00  0.00    -0.357 OA
ATOM     16  C   UNL     1     -19.011  20.208 -26.097  1.00  0.00     0.114 A 
ATOM     17  N   UNL     1     -19.207  19.099 -25.361  1.00  0.00    -0.079 NA
BRANCH  16  18
ATOM     18  C   UNL     1     -18.851  21.528 -25.479  1.00  0.00     0.004 A 
ATOM     19  C   UNL     1     -19.835  22.036 -24.614  1.00  0.00     0.010 A 
ATOM     20  C   UNL     1     -17.717  22.315 -25.730  1.00  0.00     0.010 A 
ATOM     21  C   UNL     1     -19.691  23.294 -24.022  1.00  0.00     0.001 A 
ATOM     22  C   UNL     1     -17.573  23.573 -25.137  1.00  0.00     0.001 A 
ATOM     23  C   UNL     1     -18.560  24.062 -24.285  1.00  0.00     0.000 A 
ENDBRANCH  16  18
ENDBRANCH  12  13
ENDBRANCH   1  12
TORSDOF 5
ENDMDL
MODEL 7
REMARK VINA RESULT:    -7.103      2.876      8.478
REMARK INTER + INTRA:          -9.763
REMARK INTER:                  -9.090
REMARK INTRA:                  -0.674
REMARK UNBOUND:                -0.584
REMARK SMILES Cc1ccc(C(C)C)cc1OCc1cc(-c2ccccc2)no1
REMARK SMILES IDX 11 1 10 2 2 3 3 4 4 5 9 6 5 7 1 8 6 9 7 10 8 11 12 12 13 13
REMARK SMILES IDX 14 14 23 15 15 16 22 17 16 18 17 19 21 20 18 21 20 22 19 23
REMARK H PARENT
ROOT
ATOM      1  O   UNL     1     -21.257  19.825 -24.270  1.00  0.00    -0.485 OA
ENDROOT
BRANCH   1   2
ATOM      2  C   UNL     1     -20.455  20.917 -24.484  1.00  0.00     0.123 A 
ATOM      3  C   UNL     1     -20.733  22.042 -23.688  1.00  0.00    -0.009 A 
ATOM      4  C   UNL     1     -19.949  23.194 -23.831  1.00  0.00     0.007 A 
ATOM      5  C   UNL     1     -18.894  23.228 -24.743  1.00  0.00     0.004 A 
ATOM      6  C   UNL     1     -19.386  20.956 -25.387  1.00  0.00     0.050 A 
ATOM      7  C   UNL     1     -18.596  22.110 -25.530  1.00  0.00    -0.042 A 
ATOM      8  C   UNL     1     -21.861  22.024 -22.694  1.00  0.00     0.048 C 
BRANCH   7   9
ATOM      9  C   UNL     1     -17.431  22.161 -26.503  1.00  0.00     0.013 C 
ATOM     10  C   UNL     1     -16.170  22.724 -25.841  1.00  0.00     0.012 C 
ATOM     11  C   UNL     1     -17.155  20.790 -27.126  1.00  0.00     0.012 C 
ENDBRANCH   7   9
ENDBRANCH   1   2
BRANCH   1  12
ATOM     12  C   UNL     1     -20.663  18.644 -23.724  1.00  0.00     0.307 C 
BRANCH  12  13
ATOM     13  C   UNL     1     -21.063  17.475 -24.538  1.00  0.00     0.174 A 
ATOM     14  C   UNL     1     -20.614  16.900 -25.702  1.00  0.00     0.081 A 
ATOM     15  O   UNL     1     -22.124  16.764 -24.080  1.00  0.00    -0.357 OA
ATOM     16  C   UNL     1     -21.479  15.797 -25.931  1.00  0.00     0.114 A 
ATOM     17  N   UNL     1     -22.386  15.720 -24.940  1.00  0.00    -0.079 NA
BRANCH  16  18
ATOM     18  C   UNL     1     -21.463  14.838 -27.040  1.00  0.00     0.004 A 
ATOM     19  C   UNL     1     -22.632  14.152 -27.409  1.00  0.00     0.010 A 
ATOM     20  C   UNL     1     -20.287  14.582 -27.761  1.00  0.00     0.010 A 
ATOM     21  C   UNL     1     -22.625  13.236 -28.464  1.00  0.00     0.001 A 
ATOM     22  C   UNL     1     -20.280  13.665 -28.817  1.00  0.00     0.001 A 
ATOM     23  C   UNL     1     -21.448  12.991 -29.167  1.00  0.00     0.000 A 
ENDBRANCH  16  18
ENDBRANCH  12  13
ENDBRANCH   1  12
TORSDOF 5
ENDMDL
MODEL 8
REMARK VINA RESULT:    -7.094      3.755      4.967
REMARK INTER + INTRA:          -9.752
REMARK INTER:                  -8.866
REMARK INTRA:                  -0.885
REMARK UNBOUND:                -0.584
REMARK SMILES Cc1ccc(C(C)C)cc1OCc1cc(-c2ccccc2)no1
REMARK SMILES IDX 11 1 10 2 2 3 3 4 4 5 9 6 5 7 1 8 6 9 7 10 8 11 12 12 13 13
REMARK SMILES IDX 14 14 23 15 15 16 22 17 16 18 17 19 21 20 18 21 20 22 19 23
REMARK H PARENT
ROOT
ATOM      1  O   UNL     1     -23.112  17.105 -25.272  1.00  0.00    -0.485 OA
ENDROOT
BRANCH   1   2
ATOM      2  C   UNL     1     -22.193  16.167 -24.875  1.00  0.00     0.123 A 
ATOM      3  C   UNL     1     -21.619  15.404 -25.905  1.00  0.00    -0.009 A 
ATOM      4  C   UNL     1     -20.657  14.435 -25.587  1.00  0.00     0.007 A 
ATOM      5  C   UNL     1     -20.262  14.233 -24.264  1.00  0.00     0.004 A 
ATOM      6  C   UNL     1     -21.780  15.967 -23.553  1.00  0.00     0.050 A 
ATOM      7  C   UNL     1     -20.814  14.998 -23.231  1.00  0.00    -0.042 A 
ATOM      8  C   UNL     1     -22.025  15.610 -27.338  1.00  0.00     0.048 C 
BRANCH   7   9
ATOM      9  C   UNL     1     -20.355  14.776 -21.800  1.00  0.00     0.013 C 
ATOM     10  C   UNL     1     -21.468  14.165 -20.942  1.00  0.00     0.012 C 
ATOM     11  C   UNL     1     -19.088  13.921 -21.739  1.00  0.00     0.012 C 
ENDBRANCH   7   9
ENDBRANCH   1   2
BRANCH   1  12
ATOM     12  C   UNL     1     -23.066  18.399 -24.663  1.00  0.00     0.307 C 
BRANCH  12  13
ATOM     13  C   UNL     1     -21.950  19.174 -25.249  1.00  0.00     0.174 A 
ATOM     14  C   UNL     1     -20.791  19.730 -24.765  1.00  0.00     0.081 A 
ATOM     15  O   UNL     1     -22.038  19.435 -26.578  1.00  0.00    -0.357 OA
ATOM     16  C   UNL     1     -20.182  20.357 -25.884  1.00  0.00     0.114 A 
ATOM     17  N   UNL     1     -20.942  20.168 -26.978  1.00  0.00    -0.079 NA
BRANCH  16  18
ATOM     18  C   UNL     1     -18.926  21.112 -25.936  1.00  0.00     0.004 A 
ATOM     19  C   UNL     1     -18.801  22.340 -25.265  1.00  0.00     0.010 A 
ATOM     20  C   UNL     1     -17.819  20.630 -26.651  1.00  0.00     0.010 A 
ATOM     21  C   UNL     1     -17.607  23.066 -25.311  1.00  0.00     0.001 A 
ATOM     22  C   UNL     1     -16.624  21.357 -26.697  1.00  0.00     0.001 A 
ATOM     23  C   UNL     1     -16.520  22.574 -26.028  1.00  0.00     0.000 A 
ENDBRANCH  16  18
ENDBRANCH  12  13
ENDBRANCH   1  12
TORSDOF 5
ENDMDL
