MODEL 1
REMARK VINA RESULT:    -5.411      0.000      0.000
REMARK INTER + INTRA:          -6.899
REMARK INTER:                  -6.360
REMARK INTRA:                  -0.539
REMARK UNBOUND:                -0.539
REMARK SMILES C#CCOc1cc(C(C)C)ccc1C
REMARK SMILES IDX 5 1 6 2 7 3 11 4 12 5 13 6 14 7 4 8 3 9 2 10 1 11 8 12 9 13
REMARK SMILES IDX 10 14
REMARK H PARENT
ROOT
ATOM      1  C   UNL     1     -20.802  15.021 -25.071  1.00  0.00     0.123 A 
ATOM      2  C   UNL     1     -20.643  14.187 -26.185  1.00  0.00     0.050 A 
ATOM      3  C   UNL     1     -21.608  14.146 -27.207  1.00  0.00    -0.042 A 
ATOM      4  C   UNL     1     -22.742  14.960 -27.092  1.00  0.00     0.004 A 
ATOM      5  C   UNL     1     -22.908  15.793 -25.986  1.00  0.00     0.007 A 
ATOM      6  C   UNL     1     -21.945  15.832 -24.969  1.00  0.00    -0.009 A 
ATOM      7  C   UNL     1     -22.143  16.739 -23.786  1.00  0.00     0.048 C 
ENDROOT
BRANCH   1   8
ATOM      8  O   UNL     1     -19.913  15.124 -24.031  1.00  0.00    -0.481 OA
BRANCH   8   9
ATOM      9  C   UNL     1     -19.692  13.965 -23.232  1.00  0.00     0.318 C 
ATOM     10  C   UNL     1     -20.721  13.908 -22.182  1.00  0.00    -0.065 C 
ATOM     11  C   UNL     1     -21.562  13.861 -21.325  1.00  0.00     0.007 C 
ENDBRANCH   8   9
ENDBRANCH   1   8
BRANCH   3  12
ATOM     12  C   UNL     1     -21.407  13.230 -28.401  1.00  0.00     0.013 C 
ATOM     13  C   UNL     1     -20.049  13.467 -29.069  1.00  0.00     0.012 C 
ATOM     14  C   UNL     1     -22.545  13.367 -29.416  1.00  0.00     0.012 C 
ENDBRANCH   3  12
TORSDOF 3
ENDMDL
MODEL 2
REMARK VINA RESULT:    -5.381      1.431      4.911
REMARK INTER + INTRA:          -6.863
REMARK INTER:                  -6.225
REMARK INTRA:                  -0.638
REMARK UNBOUND:                -0.539
REMARK SMILES C#CCOc1cc(C(C)C)ccc1C
REMARK SMILES IDX 5 1 6 2 7 3 11 4 12 5 13 6 14 7 4 8 3 9 2 10 1 11 8 12 9 13
REMARK SMILES IDX 10 14
REMARK H PARENT
ROOT
ATOM      1  C   UNL     1     -20.655  15.018 -26.856  1.00  0.00     0.123 A 
ATOM      2  C   UNL     1     -20.259  14.350 -25.691  1.00  0.00     0.050 A 
ATOM      3  C   UNL     1     -20.903  14.586 -24.462  1.00  0.00    -0.042 A 
ATOM      4  C   UNL     1     -21.955  15.509 -24.423  1.00  0.00     0.004 A 
ATOM      5  C   UNL     1     -22.355  16.179 -25.579  1.00  0.00     0.007 A 
ATOM      6  C   UNL     1     -21.712  15.942 -26.801  1.00  0.00    -0.009 A 
ATOM      7  C   UNL     1     -22.161  16.675 -28.035  1.00  0.00     0.048 C 
ENDROOT
BRANCH   1   8
ATOM      8  O   UNL     1     -20.085  14.850 -28.092  1.00  0.00    -0.481 OA
BRANCH   8   9
ATOM      9  C   UNL     1     -20.037  13.529 -28.625  1.00  0.00     0.318 C 
ATOM     10  C   UNL     1     -21.396  13.122 -29.010  1.00  0.00    -0.065 C 
ATOM     11  C   UNL     1     -22.507  12.788 -29.324  1.00  0.00     0.007 C 
ENDBRANCH   8   9
ENDBRANCH   1   8
BRANCH   3  12
ATOM     12  C   UNL     1     -20.449  13.845 -23.217  1.00  0.00     0.013 C 
ATOM     13  C   UNL     1     -21.358  14.144 -22.022  1.00  0.00     0.012 C 
ATOM     14  C   UNL     1     -18.987  14.151 -22.880  1.00  0.00     0.012 C 
ENDBRANCH   3  12
TORSDOF 3
ENDMDL
MODEL 3
REMARK VINA RESULT:    -5.109      3.367      5.092
REMARK INTER + INTRA:          -6.544
REMARK INTER:                  -5.930
REMARK INTRA:                  -0.614
REMARK UNBOUND:                -0.539
REMARK SMILES C#CCOc1cc(C(C)C)ccc1C
REMARK SMILES IDX 5 1 6 2 7 3 11 4 12 5 13 6 14 7 4 8 3 9 2 10 1 11 8 12 9 13
REMARK SMILES IDX 10 14
REMARK H PARENT
ROOT
ATOM      1  C   UNL     1     -20.617  16.013 -29.385  1.00  0.00     0.123 A 
ATOM      2  C   UNL     1     -21.599  16.743 -30.065  1.00  0.00     0.050 A 
ATOM      3  C   UNL     1     -22.756  16.118 -30.564  1.00  0.00    -0.042 A 
ATOM      4  C   UNL     1     -22.911  14.740 -30.368  1.00  0.00     0.004 A 
ATOM      5  C   UNL     1     -21.937  14.005 -29.691  1.00  0.00     0.007 A 
ATOM      6  C   UNL     1     -20.786  14.631 -29.195  1.00  0.00    -0.009 A 
ATOM      7  C   UNL     1     -19.750  13.820 -28.468  1.00  0.00     0.048 C 
ENDROOT
BRANCH   1   8
ATOM      8  O   UNL     1     -19.461  16.540 -28.866  1.00  0.00    -0.481 OA
BRANCH   8   9
ATOM      9  C   UNL     1     -19.574  17.686 -28.026  1.00  0.00     0.318 C 
ATOM     10  C   UNL     1     -20.111  17.269 -26.722  1.00  0.00    -0.065 C 
ATOM     11  C   UNL     1     -20.549  16.928 -25.656  1.00  0.00     0.007 C 
ENDBRANCH   8   9
ENDBRANCH   1   8
BRANCH   3  12
ATOM     12  C   UNL     1     -23.802  16.938 -31.298  1.00  0.00     0.013 C 
ATOM     13  C   UNL     1     -23.604  16.875 -32.815  1.00  0.00     0.012 C 
ATOM     14  C   UNL     1     -23.825  18.389 -30.811  1.00  0.00     0.012 C 
ENDBRANCH   3  12
TORSDOF 3
ENDMDL
MODEL 4
REMARK VINA RESULT:    -5.103      4.046      5.356
REMARK INTER + INTRA:          -6.537
REMARK INTER:                  -6.189
REMARK INTRA:                  -0.348
REMARK UNBOUND:                -0.539
REMARK SMILES C#CCOc1cc(C(C)C)ccc1C
REMARK SMILES IDX 5 1 6 2 7 3 11 4 12 5 13 6 14 7 4 8 3 9 2 10 1 11 8 12 9 13
REMARK SMILES IDX 10 14
REMARK H PARENT
ROOT
ATOM      1  C   UNL     1     -20.338  17.393 -29.255  1.00  0.00     0.123 A 
ATOM      2  C   UNL     1     -20.193  16.054 -28.874  1.00  0.00     0.050 A 
ATOM      3  C   UNL     1     -21.064  15.061 -29.356  1.00  0.00    -0.042 A 
ATOM      4  C   UNL     1     -22.091  15.437 -30.231  1.00  0.00     0.004 A 
ATOM      5  C   UNL     1     -22.243  16.769 -30.616  1.00  0.00     0.007 A 
ATOM      6  C   UNL     1     -21.373  17.756 -30.134  1.00  0.00    -0.009 A 
ATOM      7  C   UNL     1     -21.555  19.185 -30.563  1.00  0.00     0.048 C 
ENDROOT
BRANCH   1   8
ATOM      8  O   UNL     1     -19.536  18.423 -28.835  1.00  0.00    -0.481 OA
BRANCH   8   9
ATOM      9  C   UNL     1     -19.452  18.669 -27.433  1.00  0.00     0.318 C 
ATOM     10  C   UNL     1     -18.478  19.743 -27.196  1.00  0.00    -0.065 C 
ATOM     11  C   UNL     1     -17.681  20.622 -27.001  1.00  0.00     0.007 C 
ENDBRANCH   8   9
ENDBRANCH   1   8
BRANCH   3  12
ATOM     12  C   UNL     1     -20.879  13.617 -28.922  1.00  0.00     0.013 C 
ATOM     13  C   UNL     1     -22.171  12.811 -29.084  1.00  0.00     0.012 C 
ATOM     14  C   UNL     1     -20.354  13.522 -27.487  1.00  0.00     0.012 C 
ENDBRANCH   3  12
TORSDOF 3
ENDMDL
MODEL 5
REMARK VINA RESULT:    -5.057      4.735      7.154
REMARK INTER + INTRA:          -6.483
REMARK INTER:                  -6.083
REMARK INTRA:                  -0.400
REMARK UNBOUND:                -0.539
REMARK SMILES C#CCOc1cc(C(C)C)ccc1C
REMARK SMILES IDX 5 1 6 2 7 3 11 4 12 5 13 6 14 7 4 8 3 9 2 10 1 11 8 12 9 13
REMARK SMILES IDX 10 14
REMARK H PARENT
ROOT
ATOM      1  C   UNL     1     -22.060  17.427 -30.641  1.00  0.00     0.123 A 
ATOM      2  C   UNL     1     -21.082  17.040 -29.716  1.00  0.00     0.050 A 
ATOM      3  C   UNL     1     -20.925  15.693 -29.344  1.00  0.00    -0.042 A 
ATOM      4  C   UNL     1     -21.770  14.735 -29.918  1.00  0.00     0.004 A 
ATOM      5  C   UNL     1     -22.746  15.112 -30.840  1.00  0.00     0.007 A 
ATOM      6  C   UNL     1     -22.901  16.454 -31.209  1.00  0.00    -0.009 A 
ATOM      7  C   UNL     1     -23.959  16.838 -32.206  1.00  0.00     0.048 C 
ENDROOT
BRANCH   1   8
ATOM      8  O   UNL     1     -22.283  18.714 -31.060  1.00  0.00    -0.481 OA
BRANCH   8   9
ATOM      9  C   UNL     1     -21.300  19.695 -30.738  1.00  0.00     0.318 C 
ATOM     10  C   UNL     1     -20.693  20.186 -31.983  1.00  0.00    -0.065 C 
ATOM     11  C   UNL     1     -20.196  20.588 -33.001  1.00  0.00     0.007 C 
ENDBRANCH   8   9
ENDBRANCH   1   8
BRANCH   3  12
ATOM     12  C   UNL     1     -19.855  15.307 -28.337  1.00  0.00     0.013 C 
ATOM     13  C   UNL     1     -19.431  13.845 -28.499  1.00  0.00     0.012 C 
ATOM     14  C   UNL     1     -20.304  15.589 -26.902  1.00  0.00     0.012 C 
ENDBRANCH   3  12
TORSDOF 3
ENDMDL
MODEL 6
REMARK VINA RESULT:    -4.985      2.951      4.570
REMARK INTER + INTRA:          -6.399
REMARK INTER:                  -6.030
REMARK INTRA:                  -0.368
REMARK UNBOUND:                -0.539
REMARK SMILES C#CCOc1cc(C(C)C)ccc1C
REMARK SMILES IDX 5 1 6 2 7 3 11 4 12 5 13 6 14 7 4 8 3 9 2 10 1 11 8 12 9 13
REMARK SMILES IDX 10 14
REMARK H PARENT
ROOT
ATOM      1  C   UNL     1     -21.201  14.358 -28.754  1.00  0.00     0.123 A 
ATOM      2  C   UNL     1     -20.825  15.696 -28.922  1.00  0.00     0.050 A 
ATOM      3  C   UNL     1     -21.457  16.516 -29.875  1.00  0.00    -0.042 A 
ATOM      4  C   UNL     1     -22.478  15.967 -30.661  1.00  0.00     0.004 A 
ATOM      5  C   UNL     1     -22.858  14.635 -30.500  1.00  0.00     0.007 A 
ATOM      6  C   UNL     1     -22.227  13.821 -29.550  1.00  0.00    -0.009 A 
ATOM      7  C   UNL     1     -22.654  12.388 -29.393  1.00  0.00     0.048 C 
ENDROOT
BRANCH   1   8
ATOM      8  O   UNL     1     -20.641  13.490 -27.853  1.00  0.00    -0.481 OA
BRANCH   8   9
ATOM      9  C   UNL     1     -19.941  14.047 -26.743  1.00  0.00     0.318 C 
ATOM     10  C   UNL     1     -20.919  14.550 -25.768  1.00  0.00    -0.065 C 
ATOM     11  C   UNL     1     -21.719  14.962 -24.971  1.00  0.00     0.007 C 
ENDBRANCH   8   9
ENDBRANCH   1   8
BRANCH   3  12
ATOM     12  C   UNL     1     -21.025  17.964 -30.032  1.00  0.00     0.013 C 
ATOM     13  C   UNL     1     -21.229  18.756 -28.738  1.00  0.00     0.012 C 
ATOM     14  C   UNL     1     -21.739  18.641 -31.204  1.00  0.00     0.012 C 
ENDBRANCH   3  12
TORSDOF 3
ENDMDL
MODEL 7
REMARK VINA RESULT:    -4.981      1.787      3.517
REMARK INTER + INTRA:          -6.394
REMARK INTER:                  -5.801
REMARK INTRA:                  -0.593
REMARK UNBOUND:                -0.539
REMARK SMILES C#CCOc1cc(C(C)C)ccc1C
REMARK SMILES IDX 5 1 6 2 7 3 11 4 12 5 13 6 14 7 4 8 3 9 2 10 1 11 8 12 9 13
REMARK SMILES IDX 10 14
REMARK H PARENT
ROOT
ATOM      1  C   UNL     1     -22.398  15.508 -26.033  1.00  0.00     0.123 A 
ATOM      2  C   UNL     1     -22.542  15.058 -27.351  1.00  0.00     0.050 A 
ATOM      3  C   UNL     1     -21.626  14.153 -27.916  1.00  0.00    -0.042 A 
ATOM      4  C   UNL     1     -20.556  13.705 -27.131  1.00  0.00     0.004 A 
ATOM      5  C   UNL     1     -20.405  14.147 -25.818  1.00  0.00     0.007 A 
ATOM      6  C   UNL     1     -21.320  15.049 -25.258  1.00  0.00    -0.009 A 
ATOM      7  C   UNL     1     -21.138  15.513 -23.839  1.00  0.00     0.048 C 
ENDROOT
BRANCH   1   8
ATOM      8  O   UNL     1     -23.242  16.388 -25.405  1.00  0.00    -0.481 OA
BRANCH   8   9
ATOM      9  C   UNL     1     -23.418  17.674 -25.994  1.00  0.00     0.318 C 
ATOM     10  C   UNL     1     -22.155  18.420 -25.893  1.00  0.00    -0.065 C 
ATOM     11  C   UNL     1     -21.123  19.030 -25.810  1.00  0.00     0.007 C 
ENDBRANCH   8   9
ENDBRANCH   1   8
BRANCH   3  12
ATOM     12  C   UNL     1     -21.811  13.685 -29.349  1.00  0.00     0.013 C 
ATOM     13  C   UNL     1     -22.495  14.754 -30.206  1.00  0.00     0.012 C 
ATOM     14  C   UNL     1     -22.576  12.361 -29.416  1.00  0.00     0.012 C 
ENDBRANCH   3  12
TORSDOF 3
ENDMDL
MODEL 8
REMARK VINA RESULT:    -4.876      3.179      6.108
REMARK INTER + INTRA:          -6.270
REMARK INTER:                  -5.766
REMARK INTRA:                  -0.505
REMARK UNBOUND:                -0.539
REMARK SMILES C#CCOc1cc(C(C)C)ccc1C
REMARK SMILES IDX 5 1 6 2 7 3 11 4 12 5 13 6 14 7 4 8 3 9 2 10 1 11 8 12 9 13
REMARK SMILES IDX 10 14
REMARK H PARENT
ROOT
ATOM      1  C   UNL     1     -21.254  15.813 -28.975  1.00  0.00     0.123 A 
ATOM      2  C   UNL     1     -20.614  16.015 -27.747  1.00  0.00     0.050 A 
ATOM      3  C   UNL     1     -20.907  15.209 -26.632  1.00  0.00    -0.042 A 
ATOM      4  C   UNL     1     -21.859  14.192 -26.772  1.00  0.00     0.004 A 
ATOM      5  C   UNL     1     -22.502  13.984 -27.992  1.00  0.00     0.007 A 
ATOM      6  C   UNL     1     -22.207  14.789 -29.101  1.00  0.00    -0.009 A 
ATOM      7  C   UNL     1     -22.911  14.546 -30.407  1.00  0.00     0.048 C 
ENDROOT
BRANCH   1   8
ATOM      8  O   UNL     1     -21.030  16.550 -30.111  1.00  0.00    -0.481 OA
BRANCH   8   9
ATOM      9  C   UNL     1     -21.398  17.926 -30.091  1.00  0.00     0.318 C 
ATOM     10  C   UNL     1     -22.431  18.157 -31.112  1.00  0.00    -0.065 C 
ATOM     11  C   UNL     1     -23.275  18.345 -31.947  1.00  0.00     0.007 C 
ENDBRANCH   8   9
ENDBRANCH   1   8
BRANCH   3  12
ATOM     12  C   UNL     1     -20.195  15.456 -25.313  1.00  0.00     0.013 C 
ATOM     13  C   UNL     1     -20.755  14.570 -24.197  1.00  0.00     0.012 C 
ATOM     14  C   UNL     1     -20.243  16.932 -24.914  1.00  0.00     0.012 C 
ENDBRANCH   3  12
TORSDOF 3
ENDMDL
