MODEL 1
REMARK VINA RESULT:    -5.086      0.000      0.000
REMARK INTER + INTRA:          -6.680
REMARK INTER:                  -6.127
REMARK INTRA:                  -0.553
REMARK UNBOUND:                -0.553
REMARK SMILES CC(=O)Oc1ccccc1C(=O)O
REMARK SMILES IDX 5 1 6 2 7 3 8 4 9 5 10 6 4 7 2 8 3 9 1 10 11 11 12 12 13 13
REMARK H PARENT 13 14
ROOT
ATOM      1  C   UNL     1     -21.228  15.403 -29.604  1.00  0.00     0.145 A 
ATOM      2  C   UNL     1     -20.633  14.632 -28.599  1.00  0.00     0.048 A 
ATOM      3  C   UNL     1     -21.171  13.389 -28.273  1.00  0.00     0.004 A 
ATOM      4  C   UNL     1     -22.305  12.924 -28.940  1.00  0.00     0.001 A 
ATOM      5  C   UNL     1     -22.908  13.705 -29.932  1.00  0.00     0.019 A 
ATOM      6  C   UNL     1     -22.380  14.960 -30.272  1.00  0.00     0.102 A 
ENDROOT
BRANCH   1   7
ATOM      7  O   UNL     1     -20.657  16.652 -29.861  1.00  0.00    -0.426 OA
BRANCH   7   8
ATOM      8  C   UNL     1     -20.833  17.546 -28.811  1.00  0.00     0.308 C 
ATOM      9  O   UNL     1     -21.897  17.882 -28.307  1.00  0.00    -0.252 OA
ATOM     10  C   UNL     1     -19.493  18.073 -28.391  1.00  0.00     0.139 C 
ENDBRANCH   7   8
ENDBRANCH   1   7
BRANCH   6  11
ATOM     11  C   UNL     1     -23.032  15.808 -31.304  1.00  0.00     0.339 C 
ATOM     12  O   UNL     1     -24.200  16.149 -31.344  1.00  0.00    -0.246 OA
BRANCH  11  13
ATOM     13  O   UNL     1     -22.176  16.200 -32.267  1.00  0.00    -0.478 OA
ATOM     14  H   UNL     1     -21.454  16.640 -31.773  1.00  0.00     0.297 HD
ENDBRANCH  11  13
ENDBRANCH   6  11
TORSDOF 4
ENDMDL
MODEL 2
REMARK VINA RESULT:    -5.057      6.654      8.093
REMARK INTER + INTRA:          -6.645
REMARK INTER:                  -5.998
REMARK INTRA:                  -0.647
REMARK UNBOUND:                -0.553
REMARK SMILES CC(=O)Oc1ccccc1C(=O)O
REMARK SMILES IDX 5 1 6 2 7 3 8 4 9 5 10 6 4 7 2 8 3 9 1 10 11 11 12 12 13 13
REMARK H PARENT 13 14
ROOT
ATOM      1  C   UNL     1     -21.383  15.331 -22.666  1.00  0.00     0.145 A 
ATOM      2  C   UNL     1     -22.223  16.255 -23.299  1.00  0.00     0.048 A 
ATOM      3  C   UNL     1     -22.268  16.306 -24.691  1.00  0.00     0.004 A 
ATOM      4  C   UNL     1     -21.468  15.448 -25.445  1.00  0.00     0.001 A 
ATOM      5  C   UNL     1     -20.616  14.538 -24.810  1.00  0.00     0.019 A 
ATOM      6  C   UNL     1     -20.558  14.474 -23.409  1.00  0.00     0.102 A 
ENDROOT
BRANCH   1   7
ATOM      7  O   UNL     1     -21.364  15.352 -21.269  1.00  0.00    -0.426 OA
BRANCH   7   8
ATOM      8  C   UNL     1     -22.426  14.648 -20.710  1.00  0.00     0.308 C 
ATOM      9  O   UNL     1     -22.669  13.457 -20.852  1.00  0.00    -0.252 OA
ATOM     10  C   UNL     1     -23.265  15.596 -19.906  1.00  0.00     0.139 C 
ENDBRANCH   7   8
ENDBRANCH   1   7
BRANCH   6  11
ATOM     11  C   UNL     1     -19.634  13.530 -22.727  1.00  0.00     0.339 C 
ATOM     12  O   UNL     1     -18.431  13.651 -22.589  1.00  0.00    -0.246 OA
BRANCH  11  13
ATOM     13  O   UNL     1     -20.270  12.448 -22.238  1.00  0.00    -0.478 OA
ATOM     14  H   UNL     1     -20.590  11.984 -23.039  1.00  0.00     0.297 HD
ENDBRANCH  11  13
ENDBRANCH   6  11
TORSDOF 4
ENDMDL
MODEL 3
REMARK VINA RESULT:    -5.045      5.662      8.971
REMARK INTER + INTRA:          -6.631
REMARK INTER:                  -5.936
REMARK INTRA:                  -0.695
REMARK UNBOUND:                -0.553
REMARK SMILES CC(=O)Oc1ccccc1C(=O)O
REMARK SMILES IDX 5 1 6 2 7 3 8 4 9 5 10 6 4 7 2 8 3 9 1 10 11 11 12 12 13 13
REMARK H PARENT 13 14
ROOT
ATOM      1  C   UNL     1     -18.682  21.429 -25.381  1.00  0.00     0.145 A 
ATOM      2  C   UNL     1     -19.899  21.406 -24.692  1.00  0.00     0.048 A 
ATOM      3  C   UNL     1     -20.339  22.552 -24.031  1.00  0.00     0.004 A 
ATOM      4  C   UNL     1     -19.560  23.708 -24.049  1.00  0.00     0.001 A 
ATOM      5  C   UNL     1     -18.335  23.722 -24.724  1.00  0.00     0.019 A 
ATOM      6  C   UNL     1     -17.877  22.577 -25.394  1.00  0.00     0.102 A 
ENDROOT
BRANCH   1   7
ATOM      7  O   UNL     1     -18.286  20.239 -25.998  1.00  0.00    -0.426 OA
BRANCH   7   8
ATOM      8  C   UNL     1     -18.973  19.996 -27.182  1.00  0.00     0.308 C 
ATOM      9  O   UNL     1     -19.213  20.806 -28.067  1.00  0.00    -0.252 OA
ATOM     10  C   UNL     1     -19.412  18.562 -27.203  1.00  0.00     0.139 C 
ENDBRANCH   7   8
ENDBRANCH   1   7
BRANCH   6  11
ATOM     11  C   UNL     1     -16.562  22.575 -26.089  1.00  0.00     0.339 C 
ATOM     12  O   UNL     1     -15.460  22.605 -25.575  1.00  0.00    -0.246 OA
BRANCH  11  13
ATOM     13  O   UNL     1     -16.687  22.539 -27.430  1.00  0.00    -0.478 OA
ATOM     14  H   UNL     1     -17.354  23.231 -27.621  1.00  0.00     0.297 HD
ENDBRANCH  11  13
ENDBRANCH   6  11
TORSDOF 4
ENDMDL
MODEL 4
REMARK VINA RESULT:    -5.021      1.724      3.472
REMARK INTER + INTRA:          -6.602
REMARK INTER:                  -6.379
REMARK INTRA:                  -0.223
REMARK UNBOUND:                -0.553
REMARK SMILES CC(=O)Oc1ccccc1C(=O)O
REMARK SMILES IDX 5 1 6 2 7 3 8 4 9 5 10 6 4 7 2 8 3 9 1 10 11 11 12 12 13 13
REMARK H PARENT 13 14
ROOT
ATOM      1  C   UNL     1     -20.687  15.643 -29.281  1.00  0.00     0.145 A 
ATOM      2  C   UNL     1     -19.718  16.281 -28.499  1.00  0.00     0.048 A 
ATOM      3  C   UNL     1     -19.621  17.671 -28.518  1.00  0.00     0.004 A 
ATOM      4  C   UNL     1     -20.480  18.418 -29.325  1.00  0.00     0.001 A 
ATOM      5  C   UNL     1     -21.435  17.775 -30.120  1.00  0.00     0.019 A 
ATOM      6  C   UNL     1     -21.546  16.376 -30.113  1.00  0.00     0.102 A 
ENDROOT
BRANCH   1   7
ATOM      7  O   UNL     1     -20.711  14.247 -29.238  1.00  0.00    -0.426 OA
BRANCH   7   8
ATOM      8  C   UNL     1     -20.886  13.755 -27.949  1.00  0.00     0.308 C 
ATOM      9  O   UNL     1     -20.023  13.281 -27.223  1.00  0.00    -0.252 OA
ATOM     10  C   UNL     1     -22.335  13.872 -27.578  1.00  0.00     0.139 C 
ENDBRANCH   7   8
ENDBRANCH   1   7
BRANCH   6  11
ATOM     11  C   UNL     1     -22.539  15.685 -30.977  1.00  0.00     0.339 C 
ATOM     12  O   UNL     1     -23.399  14.901 -30.625  1.00  0.00    -0.246 OA
BRANCH  11  13
ATOM     13  O   UNL     1     -22.406  16.011 -32.278  1.00  0.00    -0.478 OA
ATOM     14  H   UNL     1     -22.227  16.974 -32.260  1.00  0.00     0.297 HD
ENDBRANCH  11  13
ENDBRANCH   6  11
TORSDOF 4
ENDMDL
MODEL 5
REMARK VINA RESULT:    -5.018      7.448      9.160
REMARK INTER + INTRA:          -6.598
REMARK INTER:                  -6.242
REMARK INTRA:                  -0.356
REMARK UNBOUND:                -0.553
REMARK SMILES CC(=O)Oc1ccccc1C(=O)O
REMARK SMILES IDX 5 1 6 2 7 3 8 4 9 5 10 6 4 7 2 8 3 9 1 10 11 11 12 12 13 13
REMARK H PARENT 13 14
ROOT
ATOM      1  C   UNL     1     -18.778  22.079 -25.599  1.00  0.00     0.145 A 
ATOM      2  C   UNL     1     -18.855  20.716 -25.907  1.00  0.00     0.048 A 
ATOM      3  C   UNL     1     -19.501  19.846 -25.031  1.00  0.00     0.004 A 
ATOM      4  C   UNL     1     -20.055  20.334 -23.848  1.00  0.00     0.001 A 
ATOM      5  C   UNL     1     -19.961  21.694 -23.534  1.00  0.00     0.019 A 
ATOM      6  C   UNL     1     -19.314  22.584 -24.405  1.00  0.00     0.102 A 
ENDROOT
BRANCH   1   7
ATOM      7  O   UNL     1     -18.092  22.891 -26.505  1.00  0.00    -0.426 OA
BRANCH   7   8
ATOM      8  C   UNL     1     -16.861  22.360 -26.873  1.00  0.00     0.308 C 
ATOM      9  O   UNL     1     -16.577  21.851 -27.949  1.00  0.00    -0.252 OA
ATOM     10  C   UNL     1     -15.914  22.484 -25.716  1.00  0.00     0.139 C 
ENDBRANCH   7   8
ENDBRANCH   1   7
BRANCH   6  11
ATOM     11  C   UNL     1     -19.184  24.025 -24.064  1.00  0.00     0.339 C 
ATOM     12  O   UNL     1     -20.086  24.826 -23.905  1.00  0.00    -0.246 OA
BRANCH  11  13
ATOM     13  O   UNL     1     -17.900  24.412 -23.938  1.00  0.00    -0.478 OA
ATOM     14  H   UNL     1     -17.718  24.893 -24.772  1.00  0.00     0.297 HD
ENDBRANCH  11  13
ENDBRANCH   6  11
TORSDOF 4
ENDMDL
MODEL 6
REMARK VINA RESULT:    -4.918      2.866      3.790
REMARK INTER + INTRA:          -6.478
REMARK INTER:                  -5.783
REMARK INTRA:                  -0.695
REMARK UNBOUND:                -0.553
REMARK SMILES CC(=O)Oc1ccccc1C(=O)O
REMARK SMILES IDX 5 1 6 2 7 3 8 4 9 5 10 6 4 7 2 8 3 9 1 10 11 11 12 12 13 13
REMARK H PARENT 13 14
ROOT
ATOM      1  C   UNL     1     -20.776  15.053 -27.945  1.00  0.00     0.145 A 
ATOM      2  C   UNL     1     -20.209  16.331 -27.996  1.00  0.00     0.048 A 
ATOM      3  C   UNL     1     -20.518  17.182 -29.056  1.00  0.00     0.004 A 
ATOM      4  C   UNL     1     -21.380  16.751 -30.065  1.00  0.00     0.001 A 
ATOM      5  C   UNL     1     -21.930  15.466 -30.021  1.00  0.00     0.019 A 
ATOM      6  C   UNL     1     -21.629  14.597 -28.961  1.00  0.00     0.102 A 
ENDROOT
BRANCH   1   7
ATOM      7  O   UNL     1     -20.401  14.241 -26.872  1.00  0.00    -0.426 OA
BRANCH   7   8
ATOM      8  C   UNL     1     -21.002  14.622 -25.677  1.00  0.00     0.308 C 
ATOM      9  O   UNL     1     -22.183  14.896 -25.508  1.00  0.00    -0.252 OA
ATOM     10  C   UNL     1     -19.957  14.676 -24.603  1.00  0.00     0.139 C 
ENDBRANCH   7   8
ENDBRANCH   1   7
BRANCH   6  11
ATOM     11  C   UNL     1     -22.187  13.219 -28.922  1.00  0.00     0.339 C 
ATOM     12  O   UNL     1     -22.038  12.343 -29.753  1.00  0.00    -0.246 OA
BRANCH  11  13
ATOM     13  O   UNL     1     -22.929  12.994 -27.821  1.00  0.00    -0.478 OA
ATOM     14  H   UNL     1     -22.897  13.847 -27.340  1.00  0.00     0.297 HD
ENDBRANCH  11  13
ENDBRANCH   6  11
TORSDOF 4
ENDMDL
MODEL 7
REMARK VINA RESULT:    -4.859      3.057      5.251
REMARK INTER + INTRA:          -6.407
REMARK INTER:                  -5.996
REMARK INTRA:                  -0.411
REMARK UNBOUND:                -0.553
REMARK SMILES CC(=O)Oc1ccccc1C(=O)O
REMARK SMILES IDX 5 1 6 2 7 3 8 4 9 5 10 6 4 7 2 8 3 9 1 10 11 11 12 12 13 13
REMARK H PARENT 13 14
ROOT
ATOM      1  C   UNL     1     -20.278  15.005 -27.473  1.00  0.00     0.145 A 
ATOM      2  C   UNL     1     -19.871  15.701 -28.617  1.00  0.00     0.048 A 
ATOM      3  C   UNL     1     -19.634  17.072 -28.542  1.00  0.00     0.004 A 
ATOM      4  C   UNL     1     -19.817  17.745 -27.334  1.00  0.00     0.001 A 
ATOM      5  C   UNL     1     -20.242  17.049 -26.197  1.00  0.00     0.019 A 
ATOM      6  C   UNL     1     -20.485  15.668 -26.255  1.00  0.00     0.102 A 
ENDROOT
BRANCH   1   7
ATOM      7  O   UNL     1     -20.526  13.638 -27.624  1.00  0.00    -0.426 OA
BRANCH   7   8
ATOM      8  C   UNL     1     -21.794  13.377 -28.132  1.00  0.00     0.308 C 
ATOM      9  O   UNL     1     -22.854  13.456 -27.527  1.00  0.00    -0.252 OA
ATOM     10  C   UNL     1     -21.664  12.949 -29.564  1.00  0.00     0.139 C 
ENDBRANCH   7   8
ENDBRANCH   1   7
BRANCH   6  11
ATOM     11  C   UNL     1     -20.965  14.927 -25.059  1.00  0.00     0.339 C 
ATOM     12  O   UNL     1     -21.897  15.224 -24.336  1.00  0.00    -0.246 OA
BRANCH  11  13
ATOM     13  O   UNL     1     -20.236  13.822 -24.809  1.00  0.00    -0.478 OA
ATOM     14  H   UNL     1     -20.644  13.451 -24.000  1.00  0.00     0.297 HD
ENDBRANCH  11  13
ENDBRANCH   6  11
TORSDOF 4
ENDMDL
MODEL 8
REMARK VINA RESULT:    -4.820      2.007      3.224
REMARK INTER + INTRA:          -6.359
REMARK INTER:                  -5.808
REMARK INTRA:                  -0.551
REMARK UNBOUND:                -0.553
REMARK SMILES CC(=O)Oc1ccccc1C(=O)O
REMARK SMILES IDX 5 1 6 2 7 3 8 4 9 5 10 6 4 7 2 8 3 9 1 10 11 11 12 12 13 13
REMARK H PARENT 13 14
ROOT
ATOM      1  C   UNL     1     -20.880  14.708 -28.044  1.00  0.00     0.145 A 
ATOM      2  C   UNL     1     -21.627  13.526 -27.985  1.00  0.00     0.048 A 
ATOM      3  C   UNL     1     -22.525  13.225 -29.008  1.00  0.00     0.004 A 
ATOM      4  C   UNL     1     -22.685  14.109 -30.075  1.00  0.00     0.001 A 
ATOM      5  C   UNL     1     -21.951  15.298 -30.122  1.00  0.00     0.019 A 
ATOM      6  C   UNL     1     -21.042  15.616 -29.100  1.00  0.00     0.102 A 
ENDROOT
BRANCH   1   7
ATOM      7  O   UNL     1     -20.020  14.962 -26.973  1.00  0.00    -0.426 OA
BRANCH   7   8
ATOM      8  C   UNL     1     -20.697  15.358 -25.825  1.00  0.00     0.308 C 
ATOM      9  O   UNL     1     -21.476  16.297 -25.723  1.00  0.00    -0.252 OA
ATOM     10  C   UNL     1     -20.304  14.455 -24.694  1.00  0.00     0.139 C 
ENDBRANCH   7   8
ENDBRANCH   1   7
BRANCH   6  11
ATOM     11  C   UNL     1     -20.280  16.893 -29.128  1.00  0.00     0.339 C 
ATOM     12  O   UNL     1     -20.720  18.006 -29.347  1.00  0.00    -0.246 OA
BRANCH  11  13
ATOM     13  O   UNL     1     -18.968  16.716 -28.878  1.00  0.00    -0.478 OA
ATOM     14  H   UNL     1     -18.671  16.124 -29.599  1.00  0.00     0.297 HD
ENDBRANCH  11  13
ENDBRANCH   6  11
TORSDOF 4
ENDMDL
