MODEL 1
REMARK VINA RESULT:    -7.607      0.000      0.000
REMARK INTER + INTRA:         -10.444
REMARK INTER:                  -9.831
REMARK INTRA:                  -0.613
REMARK UNBOUND:                -0.613
REMARK SMILES Cc1ccc(-c2cc(COc3cc(C(C)C)ccc3C)on2)cc1
REMARK SMILES IDX 9 1 8 2 6 3 7 4 22 5 21 6 5 7 2 8 3 9 24 10 4 11 23 12 1 13
REMARK SMILES IDX 10 14 11 15 12 16 19 17 13 18 18 19 17 20 20 21 14 22 15 23
REMARK SMILES IDX 16 24
REMARK H PARENT
ROOT
ATOM      1  C   UNL     1     -19.130  18.127 -28.239  1.00  0.00     0.307 C 
ENDROOT
BRANCH   1   2
ATOM      2  C   UNL     1     -19.140  19.102 -27.124  1.00  0.00     0.174 A 
ATOM      3  C   UNL     1     -19.168  20.744 -25.628  1.00  0.00     0.114 A 
ATOM      4  C   UNL     1     -19.200  20.471 -27.023  1.00  0.00     0.081 A 
ATOM      5  N   UNL     1     -19.094  19.588 -24.943  1.00  0.00    -0.079 NA
ATOM      6  O   UNL     1     -19.076  18.574 -25.875  1.00  0.00    -0.357 OA
BRANCH   3   7
ATOM      7  C   UNL     1     -19.206  22.044 -24.948  1.00  0.00     0.004 A 
ATOM      8  C   UNL     1     -19.301  24.551 -23.638  1.00  0.00    -0.051 A 
ATOM      9  C   UNL     1     -20.293  23.594 -23.410  1.00  0.00     0.004 A 
ATOM     10  C   UNL     1     -18.250  24.242 -24.505  1.00  0.00     0.004 A 
ATOM     11  C   UNL     1     -20.248  22.357 -24.062  1.00  0.00     0.011 A 
ATOM     12  C   UNL     1     -18.206  23.004 -25.158  1.00  0.00     0.011 A 
ATOM     13  C   UNL     1     -19.330  25.864 -22.914  1.00  0.00     0.044 C 
ENDBRANCH   3   7
ENDBRANCH   1   2
BRANCH   1  14
ATOM     14  O   UNL     1     -20.275  18.395 -29.047  1.00  0.00    -0.485 OA
BRANCH  14  15
ATOM     15  C   UNL     1     -20.978  17.321 -29.528  1.00  0.00     0.123 A 
ATOM     16  C   UNL     1     -20.758  15.987 -29.160  1.00  0.00     0.050 A 
ATOM     17  C   UNL     1     -21.985  17.627 -30.457  1.00  0.00    -0.009 A 
ATOM     18  C   UNL     1     -21.529  14.946 -29.705  1.00  0.00    -0.042 A 
ATOM     19  C   UNL     1     -22.756  16.592 -31.002  1.00  0.00     0.007 A 
ATOM     20  C   UNL     1     -22.530  15.266 -30.630  1.00  0.00     0.004 A 
ATOM     21  C   UNL     1     -22.247  19.049 -30.873  1.00  0.00     0.048 C 
BRANCH  18  22
ATOM     22  C   UNL     1     -21.265  13.510 -29.285  1.00  0.00     0.013 C 
ATOM     23  C   UNL     1     -20.577  13.440 -27.918  1.00  0.00     0.012 C 
ATOM     24  C   UNL     1     -22.548  12.675 -29.294  1.00  0.00     0.012 C 
ENDBRANCH  18  22
ENDBRANCH  14  15
ENDBRANCH   1  14
TORSDOF 5
ENDMDL
MODEL 2
REMARK VINA RESULT:    -7.537      4.908      6.902
REMARK INTER + INTRA:         -10.352
REMARK INTER:                  -9.635
REMARK INTRA:                  -0.717
REMARK UNBOUND:                -0.613
REMARK SMILES Cc1ccc(-c2cc(COc3cc(C(C)C)ccc3C)on2)cc1
REMARK SMILES IDX 9 1 8 2 6 3 7 4 22 5 21 6 5 7 2 8 3 9 24 10 4 11 23 12 1 13
REMARK SMILES IDX 10 14 11 15 12 16 19 17 13 18 18 19 17 20 20 21 14 22 15 23
REMARK SMILES IDX 16 24
REMARK H PARENT
ROOT
ATOM      1  C   UNL     1     -22.490  15.135 -30.981  1.00  0.00     0.307 C 
ENDROOT
BRANCH   1   2
ATOM      2  C   UNL     1     -22.357  14.856 -29.532  1.00  0.00     0.174 A 
ATOM      3  C   UNL     1     -22.046  14.663 -27.341  1.00  0.00     0.114 A 
ATOM      4  C   UNL     1     -21.835  15.525 -28.452  1.00  0.00     0.081 A 
ATOM      5  N   UNL     1     -22.666  13.541 -27.752  1.00  0.00    -0.079 NA
ATOM      6  O   UNL     1     -22.855  13.666 -29.111  1.00  0.00    -0.357 OA
BRANCH   3   7
ATOM      7  C   UNL     1     -21.684  14.875 -25.935  1.00  0.00     0.004 A 
ATOM      8  C   UNL     1     -20.981  15.266 -23.221  1.00  0.00    -0.051 A 
ATOM      9  C   UNL     1     -20.231  14.411 -24.033  1.00  0.00     0.004 A 
ATOM     10  C   UNL     1     -22.071  15.941 -23.777  1.00  0.00     0.004 A 
ATOM     11  C   UNL     1     -20.582  14.215 -25.373  1.00  0.00     0.011 A 
ATOM     12  C   UNL     1     -22.423  15.744 -25.118  1.00  0.00     0.011 A 
ATOM     13  C   UNL     1     -20.584  15.503 -21.794  1.00  0.00     0.044 C 
ENDBRANCH   3   7
ENDBRANCH   1   2
BRANCH   1  14
ATOM     14  O   UNL     1     -23.650  15.946 -31.153  1.00  0.00    -0.485 OA
BRANCH  14  15
ATOM     15  C   UNL     1     -23.460  17.269 -31.457  1.00  0.00     0.123 A 
ATOM     16  C   UNL     1     -22.256  17.966 -31.296  1.00  0.00     0.050 A 
ATOM     17  C   UNL     1     -24.586  17.938 -31.968  1.00  0.00    -0.009 A 
ATOM     18  C   UNL     1     -22.151  19.325 -31.635  1.00  0.00    -0.042 A 
ATOM     19  C   UNL     1     -24.484  19.293 -32.308  1.00  0.00     0.007 A 
ATOM     20  C   UNL     1     -23.280  19.979 -32.143  1.00  0.00     0.004 A 
ATOM     21  C   UNL     1     -25.893  17.218 -32.154  1.00  0.00     0.048 C 
BRANCH  18  22
ATOM     22  C   UNL     1     -20.830  20.052 -31.447  1.00  0.00     0.013 C 
ATOM     23  C   UNL     1     -20.349  20.692 -32.753  1.00  0.00     0.012 C 
ATOM     24  C   UNL     1     -20.914  21.093 -30.328  1.00  0.00     0.012 C 
ENDBRANCH  18  22
ENDBRANCH  14  15
ENDBRANCH   1  14
TORSDOF 5
ENDMDL
MODEL 3
REMARK VINA RESULT:    -7.480      2.533      4.017
REMARK INTER + INTRA:         -10.279
REMARK INTER:                  -9.435
REMARK INTRA:                  -0.844
REMARK UNBOUND:                -0.613
REMARK SMILES Cc1ccc(-c2cc(COc3cc(C(C)C)ccc3C)on2)cc1
REMARK SMILES IDX 9 1 8 2 6 3 7 4 22 5 21 6 5 7 2 8 3 9 24 10 4 11 23 12 1 13
REMARK SMILES IDX 10 14 11 15 12 16 19 17 13 18 18 19 17 20 20 21 14 22 15 23
REMARK SMILES IDX 16 24
REMARK H PARENT
ROOT
ATOM      1  C   UNL     1     -23.669  17.642 -26.266  1.00  0.00     0.307 C 
ENDROOT
BRANCH   1   2
ATOM      2  C   UNL     1     -22.455  18.437 -26.565  1.00  0.00     0.174 A 
ATOM      3  C   UNL     1     -20.605  19.650 -26.763  1.00  0.00     0.114 A 
ATOM      4  C   UNL     1     -21.495  19.073 -25.816  1.00  0.00     0.081 A 
ATOM      5  N   UNL     1     -21.024  19.364 -28.010  1.00  0.00    -0.079 NA
ATOM      6  O   UNL     1     -22.172  18.612 -27.880  1.00  0.00    -0.357 OA
BRANCH   3   7
ATOM      7  C   UNL     1     -19.396  20.446 -26.518  1.00  0.00     0.004 A 
ATOM      8  C   UNL     1     -17.076  21.997 -26.044  1.00  0.00    -0.051 A 
ATOM      9  C   UNL     1     -18.278  22.304 -25.402  1.00  0.00     0.004 A 
ATOM     10  C   UNL     1     -17.033  20.899 -26.907  1.00  0.00     0.004 A 
ATOM     11  C   UNL     1     -19.426  21.539 -25.641  1.00  0.00     0.011 A 
ATOM     12  C   UNL     1     -18.182  20.135 -27.147  1.00  0.00     0.011 A 
ATOM     13  C   UNL     1     -15.838  22.794 -25.763  1.00  0.00     0.044 C 
ENDBRANCH   3   7
ENDBRANCH   1   2
BRANCH   1  14
ATOM     14  O   UNL     1     -23.258  16.510 -25.502  1.00  0.00    -0.485 OA
BRANCH  14  15
ATOM     15  C   UNL     1     -22.426  15.604 -26.107  1.00  0.00     0.123 A 
ATOM     16  C   UNL     1     -22.583  15.115 -27.410  1.00  0.00     0.050 A 
ATOM     17  C   UNL     1     -21.347  15.160 -25.324  1.00  0.00    -0.009 A 
ATOM     18  C   UNL     1     -21.678  14.186 -27.952  1.00  0.00    -0.042 A 
ATOM     19  C   UNL     1     -20.444  14.234 -25.861  1.00  0.00     0.007 A 
ATOM     20  C   UNL     1     -20.608  13.752 -27.161  1.00  0.00     0.004 A 
ATOM     21  C   UNL     1     -21.150  15.666 -23.922  1.00  0.00     0.048 C 
BRANCH  18  22
ATOM     22  C   UNL     1     -21.877  13.675 -29.369  1.00  0.00     0.013 C 
ATOM     23  C   UNL     1     -22.590  12.320 -29.384  1.00  0.00     0.012 C 
ATOM     24  C   UNL     1     -22.621  14.693 -30.236  1.00  0.00     0.012 C 
ENDBRANCH  18  22
ENDBRANCH  14  15
ENDBRANCH   1  14
TORSDOF 5
ENDMDL
MODEL 4
REMARK VINA RESULT:    -7.469      0.986      2.916
REMARK INTER + INTRA:         -10.265
REMARK INTER:                  -9.648
REMARK INTRA:                  -0.617
REMARK UNBOUND:                -0.613
REMARK SMILES Cc1ccc(-c2cc(COc3cc(C(C)C)ccc3C)on2)cc1
REMARK SMILES IDX 9 1 8 2 6 3 7 4 22 5 21 6 5 7 2 8 3 9 24 10 4 11 23 12 1 13
REMARK SMILES IDX 10 14 11 15 12 16 19 17 13 18 18 19 17 20 20 21 14 22 15 23
REMARK SMILES IDX 16 24
REMARK H PARENT
ROOT
ATOM      1  C   UNL     1     -19.325  17.557 -28.460  1.00  0.00     0.307 C 
ENDROOT
BRANCH   1   2
ATOM      2  C   UNL     1     -19.263  18.563 -27.374  1.00  0.00     0.174 A 
ATOM      3  C   UNL     1     -19.186  20.248 -25.928  1.00  0.00     0.114 A 
ATOM      4  C   UNL     1     -19.280  19.935 -27.312  1.00  0.00     0.081 A 
ATOM      5  N   UNL     1     -19.119  19.110 -25.212  1.00  0.00    -0.079 NA
ATOM      6  O   UNL     1     -19.167  18.069 -26.114  1.00  0.00    -0.357 OA
BRANCH   3   7
ATOM      7  C   UNL     1     -19.161  21.567 -25.286  1.00  0.00     0.004 A 
ATOM      8  C   UNL     1     -19.092  24.111 -24.047  1.00  0.00    -0.051 A 
ATOM      9  C   UNL     1     -18.100  23.739 -24.958  1.00  0.00     0.004 A 
ATOM     10  C   UNL     1     -20.129  23.216 -23.774  1.00  0.00     0.004 A 
ATOM     11  C   UNL     1     -18.132  22.479 -25.566  1.00  0.00     0.011 A 
ATOM     12  C   UNL     1     -20.161  21.955 -24.383  1.00  0.00     0.011 A 
ATOM     13  C   UNL     1     -19.076  25.474 -23.421  1.00  0.00     0.044 C 
ENDBRANCH   3   7
ENDBRANCH   1   2
BRANCH   1  14
ATOM     14  O   UNL     1     -20.092  16.456 -27.976  1.00  0.00    -0.485 OA
BRANCH  14  15
ATOM     15  C   UNL     1     -20.995  15.885 -28.834  1.00  0.00     0.123 A 
ATOM     16  C   UNL     1     -21.558  16.522 -29.947  1.00  0.00     0.050 A 
ATOM     17  C   UNL     1     -21.354  14.560 -28.537  1.00  0.00    -0.009 A 
ATOM     18  C   UNL     1     -22.479  15.858 -30.776  1.00  0.00    -0.042 A 
ATOM     19  C   UNL     1     -22.272  13.895 -29.362  1.00  0.00     0.007 A 
ATOM     20  C   UNL     1     -22.828  14.538 -30.469  1.00  0.00     0.004 A 
ATOM     21  C   UNL     1     -20.767  13.848 -27.350  1.00  0.00     0.048 C 
BRANCH  18  22
ATOM     22  C   UNL     1     -23.072  16.578 -31.976  1.00  0.00     0.013 C 
ATOM     23  C   UNL     1     -24.601  16.500 -31.979  1.00  0.00     0.012 C 
ATOM     24  C   UNL     1     -22.598  18.031 -32.053  1.00  0.00     0.012 C 
ENDBRANCH  18  22
ENDBRANCH  14  15
ENDBRANCH   1  14
TORSDOF 5
ENDMDL
MODEL 5
REMARK VINA RESULT:    -7.424      1.896      8.984
REMARK INTER + INTRA:         -10.207
REMARK INTER:                  -9.605
REMARK INTRA:                  -0.601
REMARK UNBOUND:                -0.613
REMARK SMILES Cc1ccc(-c2cc(COc3cc(C(C)C)ccc3C)on2)cc1
REMARK SMILES IDX 9 1 8 2 6 3 7 4 22 5 21 6 5 7 2 8 3 9 24 10 4 11 23 12 1 13
REMARK SMILES IDX 10 14 11 15 12 16 19 17 13 18 18 19 17 20 20 21 14 22 15 23
REMARK SMILES IDX 16 24
REMARK H PARENT
ROOT
ATOM      1  C   UNL     1     -18.500  20.329 -27.254  1.00  0.00     0.307 C 
ENDROOT
BRANCH   1   2
ATOM      2  C   UNL     1     -19.138  18.993 -27.194  1.00  0.00     0.174 A 
ATOM      3  C   UNL     1     -20.113  17.004 -27.355  1.00  0.00     0.114 A 
ATOM      4  C   UNL     1     -19.648  18.112 -28.116  1.00  0.00     0.081 A 
ATOM      5  N   UNL     1     -19.884  17.225 -26.048  1.00  0.00    -0.079 NA
ATOM      6  O   UNL     1     -19.280  18.460 -25.954  1.00  0.00    -0.357 OA
BRANCH   3   7
ATOM      7  C   UNL     1     -20.751  15.770 -27.829  1.00  0.00     0.004 A 
ATOM      8  C   UNL     1     -21.976  13.395 -28.763  1.00  0.00    -0.051 A 
ATOM      9  C   UNL     1     -20.734  13.797 -29.262  1.00  0.00     0.004 A 
ATOM     10  C   UNL     1     -22.593  14.174 -27.781  1.00  0.00     0.004 A 
ATOM     11  C   UNL     1     -20.132  14.973 -28.803  1.00  0.00     0.011 A 
ATOM     12  C   UNL     1     -21.990  15.352 -27.323  1.00  0.00     0.011 A 
ATOM     13  C   UNL     1     -22.606  12.117 -29.229  1.00  0.00     0.044 C 
ENDBRANCH   3   7
ENDBRANCH   1   2
BRANCH   1  14
ATOM     14  O   UNL     1     -17.974  20.608 -25.958  1.00  0.00    -0.485 OA
BRANCH  14  15
ATOM     15  C   UNL     1     -18.431  21.730 -25.316  1.00  0.00     0.123 A 
ATOM     16  C   UNL     1     -19.666  21.835 -24.664  1.00  0.00     0.050 A 
ATOM     17  C   UNL     1     -17.561  22.833 -25.338  1.00  0.00    -0.009 A 
ATOM     18  C   UNL     1     -20.053  23.028 -24.029  1.00  0.00    -0.042 A 
ATOM     19  C   UNL     1     -17.945  24.023 -24.707  1.00  0.00     0.007 A 
ATOM     20  C   UNL     1     -19.177  24.119 -24.059  1.00  0.00     0.004 A 
ATOM     21  C   UNL     1     -16.228  22.752 -26.029  1.00  0.00     0.048 C 
BRANCH  18  22
ATOM     22  C   UNL     1     -21.401  23.110 -23.331  1.00  0.00     0.013 C 
ATOM     23  C   UNL     1     -21.505  22.097 -22.188  1.00  0.00     0.012 C 
ATOM     24  C   UNL     1     -21.691  24.528 -22.832  1.00  0.00     0.012 C 
ENDBRANCH  18  22
ENDBRANCH  14  15
ENDBRANCH   1  14
TORSDOF 5
ENDMDL
MODEL 6
REMARK VINA RESULT:    -7.383      4.117      6.014
REMARK INTER + INTRA:         -10.154
REMARK INTER:                  -9.207
REMARK INTRA:                  -0.947
REMARK UNBOUND:                -0.613
REMARK SMILES Cc1ccc(-c2cc(COc3cc(C(C)C)ccc3C)on2)cc1
REMARK SMILES IDX 9 1 8 2 6 3 7 4 22 5 21 6 5 7 2 8 3 9 24 10 4 11 23 12 1 13
REMARK SMILES IDX 10 14 11 15 12 16 19 17 13 18 18 19 17 20 20 21 14 22 15 23
REMARK SMILES IDX 16 24
REMARK H PARENT
ROOT
ATOM      1  C   UNL     1     -19.568  17.698 -27.916  1.00  0.00     0.307 C 
ENDROOT
BRANCH   1   2
ATOM      2  C   UNL     1     -20.279  17.356 -26.663  1.00  0.00     0.174 A 
ATOM      3  C   UNL     1     -21.174  16.658 -24.753  1.00  0.00     0.114 A 
ATOM      4  C   UNL     1     -20.117  16.417 -25.673  1.00  0.00     0.081 A 
ATOM      5  N   UNL     1     -21.920  17.692 -25.183  1.00  0.00    -0.079 NA
ATOM      6  O   UNL     1     -21.361  18.120 -26.368  1.00  0.00    -0.357 OA
BRANCH   3   7
ATOM      7  C   UNL     1     -21.482  15.949 -23.505  1.00  0.00     0.004 A 
ATOM      8  C   UNL     1     -22.076  14.599 -21.090  1.00  0.00    -0.051 A 
ATOM      9  C   UNL     1     -22.566  15.887 -21.322  1.00  0.00     0.004 A 
ATOM     10  C   UNL     1     -21.307  13.981 -22.079  1.00  0.00     0.004 A 
ATOM     11  C   UNL     1     -22.268  16.555 -22.514  1.00  0.00     0.011 A 
ATOM     12  C   UNL     1     -21.008  14.650 -23.272  1.00  0.00     0.011 A 
ATOM     13  C   UNL     1     -22.424  13.869 -19.827  1.00  0.00     0.044 C 
ENDBRANCH   3   7
ENDBRANCH   1   2
BRANCH   1  14
ATOM     14  O   UNL     1     -19.504  16.513 -28.707  1.00  0.00    -0.485 OA
BRANCH  14  15
ATOM     15  C   UNL     1     -20.649  16.116 -29.350  1.00  0.00     0.123 A 
ATOM     16  C   UNL     1     -21.520  16.970 -30.037  1.00  0.00     0.050 A 
ATOM     17  C   UNL     1     -20.928  14.741 -29.289  1.00  0.00    -0.009 A 
ATOM     18  C   UNL     1     -22.673  16.475 -30.670  1.00  0.00    -0.042 A 
ATOM     19  C   UNL     1     -22.077  14.245 -29.918  1.00  0.00     0.007 A 
ATOM     20  C   UNL     1     -22.940  15.103 -30.602  1.00  0.00     0.004 A 
ATOM     21  C   UNL     1     -20.012  13.797 -28.559  1.00  0.00     0.048 C 
BRANCH  18  22
ATOM     22  C   UNL     1     -23.599  17.428 -31.408  1.00  0.00     0.013 C 
ATOM     23  C   UNL     1     -22.954  18.803 -31.601  1.00  0.00     0.012 C 
ATOM     24  C   UNL     1     -24.056  16.846 -32.748  1.00  0.00     0.012 C 
ENDBRANCH  18  22
ENDBRANCH  14  15
ENDBRANCH   1  14
TORSDOF 5
ENDMDL
MODEL 7
REMARK VINA RESULT:    -7.270      1.521      2.747
REMARK INTER + INTRA:         -10.007
REMARK INTER:                  -9.403
REMARK INTRA:                  -0.604
REMARK UNBOUND:                -0.613
REMARK SMILES Cc1ccc(-c2cc(COc3cc(C(C)C)ccc3C)on2)cc1
REMARK SMILES IDX 9 1 8 2 6 3 7 4 22 5 21 6 5 7 2 8 3 9 24 10 4 11 23 12 1 13
REMARK SMILES IDX 10 14 11 15 12 16 19 17 13 18 18 19 17 20 20 21 14 22 15 23
REMARK SMILES IDX 16 24
REMARK H PARENT
ROOT
ATOM      1  C   UNL     1     -19.337  18.359 -27.649  1.00  0.00     0.307 C 
ENDROOT
BRANCH   1   2
ATOM      2  C   UNL     1     -19.016  19.589 -26.889  1.00  0.00     0.174 A 
ATOM      3  C   UNL     1     -18.782  21.449 -25.697  1.00  0.00     0.114 A 
ATOM      4  C   UNL     1     -19.737  20.502 -26.159  1.00  0.00     0.081 A 
ATOM      5  N   UNL     1     -17.557  21.105 -26.135  1.00  0.00    -0.079 NA
ATOM      6  O   UNL     1     -17.708  19.952 -26.874  1.00  0.00    -0.357 OA
BRANCH   3   7
ATOM      7  C   UNL     1     -19.000  22.641 -24.870  1.00  0.00     0.004 A 
ATOM      8  C   UNL     1     -19.400  24.942 -23.270  1.00  0.00    -0.051 A 
ATOM      9  C   UNL     1     -18.306  24.861 -24.136  1.00  0.00     0.004 A 
ATOM     10  C   UNL     1     -20.304  23.878 -23.223  1.00  0.00     0.004 A 
ATOM     11  C   UNL     1     -18.107  23.721 -24.922  1.00  0.00     0.011 A 
ATOM     12  C   UNL     1     -20.104  22.737 -24.010  1.00  0.00     0.011 A 
ATOM     13  C   UNL     1     -19.634  26.178 -22.453  1.00  0.00     0.044 C 
ENDBRANCH   3   7
ENDBRANCH   1   2
BRANCH   1  14
ATOM     14  O   UNL     1     -20.625  17.919 -27.222  1.00  0.00    -0.485 OA
BRANCH  14  15
ATOM     15  C   UNL     1     -20.891  16.576 -27.290  1.00  0.00     0.123 A 
ATOM     16  C   UNL     1     -21.272  15.891 -28.450  1.00  0.00     0.050 A 
ATOM     17  C   UNL     1     -20.760  15.874 -26.080  1.00  0.00    -0.009 A 
ATOM     18  C   UNL     1     -21.526  14.509 -28.427  1.00  0.00    -0.042 A 
ATOM     19  C   UNL     1     -21.012  14.496 -26.054  1.00  0.00     0.007 A 
ATOM     20  C   UNL     1     -21.391  13.821 -27.215  1.00  0.00     0.004 A 
ATOM     21  C   UNL     1     -20.351  16.580 -24.817  1.00  0.00     0.048 C 
BRANCH  18  22
ATOM     22  C   UNL     1     -21.938  13.794 -29.704  1.00  0.00     0.013 C 
ATOM     23  C   UNL     1     -22.579  12.436 -29.407  1.00  0.00     0.012 C 
ATOM     24  C   UNL     1     -22.866  14.660 -30.560  1.00  0.00     0.012 C 
ENDBRANCH  18  22
ENDBRANCH  14  15
ENDBRANCH   1  14
TORSDOF 5
ENDMDL
MODEL 8
REMARK VINA RESULT:    -7.159      2.931      8.777
REMARK INTER + INTRA:          -9.865
REMARK INTER:                  -9.175
REMARK INTRA:                  -0.689
REMARK UNBOUND:                -0.613
REMARK SMILES Cc1ccc(-c2cc(COc3cc(C(C)C)ccc3C)on2)cc1
REMARK SMILES IDX 9 1 8 2 6 3 7 4 22 5 21 6 5 7 2 8 3 9 24 10 4 11 23 12 1 13
REMARK SMILES IDX 10 14 11 15 12 16 19 17 13 18 18 19 17 20 20 21 14 22 15 23
REMARK SMILES IDX 16 24
REMARK H PARENT
ROOT
ATOM      1  C   UNL     1     -20.521  19.536 -22.989  1.00  0.00     0.307 C 
ENDROOT
BRANCH   1   2
ATOM      2  C   UNL     1     -20.764  18.239 -23.661  1.00  0.00     0.174 A 
ATOM      3  C   UNL     1     -21.131  16.423 -24.887  1.00  0.00     0.114 A 
ATOM      4  C   UNL     1     -20.943  17.830 -24.960  1.00  0.00     0.081 A 
ATOM      5  N   UNL     1     -21.064  16.025 -23.603  1.00  0.00    -0.079 NA
ATOM      6  O   UNL     1     -20.837  17.155 -22.848  1.00  0.00    -0.357 OA
BRANCH   3   7
ATOM      7  C   UNL     1     -21.366  15.471 -25.979  1.00  0.00     0.004 A 
ATOM      8  C   UNL     1     -21.802  13.641 -28.094  1.00  0.00    -0.051 A 
ATOM      9  C   UNL     1     -20.516  13.849 -27.589  1.00  0.00     0.004 A 
ATOM     10  C   UNL     1     -22.872  14.336 -27.524  1.00  0.00     0.004 A 
ATOM     11  C   UNL     1     -20.301  14.757 -26.547  1.00  0.00     0.011 A 
ATOM     12  C   UNL     1     -22.656  15.246 -26.482  1.00  0.00     0.011 A 
ATOM     13  C   UNL     1     -22.038  12.643 -29.188  1.00  0.00     0.044 C 
ENDBRANCH   3   7
ENDBRANCH   1   2
BRANCH   1  14
ATOM     14  O   UNL     1     -21.025  20.559 -23.845  1.00  0.00    -0.485 OA
BRANCH  14  15
ATOM     15  C   UNL     1     -20.169  21.570 -24.199  1.00  0.00     0.123 A 
ATOM     16  C   UNL     1     -19.089  21.436 -25.080  1.00  0.00     0.050 A 
ATOM     17  C   UNL     1     -20.434  22.818 -23.610  1.00  0.00    -0.009 A 
ATOM     18  C   UNL     1     -18.262  22.530 -25.388  1.00  0.00    -0.042 A 
ATOM     19  C   UNL     1     -19.611  23.910 -23.914  1.00  0.00     0.007 A 
ATOM     20  C   UNL     1     -18.537  23.767 -24.794  1.00  0.00     0.004 A 
ATOM     21  C   UNL     1     -21.587  22.995 -22.661  1.00  0.00     0.048 C 
BRANCH  18  22
ATOM     22  C   UNL     1     -17.097  22.351 -26.348  1.00  0.00     0.013 C 
ATOM     23  C   UNL     1     -15.752  22.545 -25.643  1.00  0.00     0.012 C 
ATOM     24  C   UNL     1     -17.153  20.994 -27.055  1.00  0.00     0.012 C 
ENDBRANCH  18  22
ENDBRANCH  14  15
ENDBRANCH   1  14
TORSDOF 5
ENDMDL
